<?xml version="1.0"?>
<VTKFile type="PolyData" version="0.1" byte_order="LittleEndian" compressor="vtkZLibDataCompressor">
  <PolyData>
    <Piece NumberOfPoints="1011" NumberOfVerts="0" NumberOfLines="0" NumberOfStrips="381" NumberOfPolys="0">
      <PointData Normals="Normals">
        <DataArray type="Float32" Name="Normals" NumberOfComponents="3" format="ascii" RangeMin="0.99999926623" RangeMax="1.0000006328">
          0.96075797081 0.27241200209 -0.052306801081 0.97413599491 0.13315099478 -0.18256700039
          0.68102800846 -0.094411797822 -0.72614502907 0.015295299701 0.0044730799273 -0.9998729825
          0.41911199689 0.90773999691 -0.01879609935 0.38911899924 0.91570997238 0.10030400008
          -0.070641599596 0.9644190073 -0.25476700068 0.28242900968 0.94643700123 0.15649600327
          -0.97993397713 0.12793199718 0.15284700692 -0.60710698366 0.14105300605 0.78200000525
          -0.05190839991 0.15926800668 0.9858700037 0.94666898251 -0.31788501143 -0.052599601448
          0.89112401009 -0.36030098796 -0.27582800388 0.64004701376 -0.066255398095 -0.76547402143
          0.017157400027 0.012762400322 -0.99977099895 0.25264701247 -0.96604901552 -0.054032899439
          -0.26160898805 -0.96177500486 0.080931000412 -0.098968699574 -0.98033702374 0.17071600258
          -0.0075039197691 -0.98252999783 0.18595199287 -0.56693398952 0.81770199537 0.099751703441
          -0.63221299648 0.63967102766 0.4371829927 -0.56518000364 0.79609197378 0.21635399759
          -0.01069059968 0.97878402472 0.20461499691 0.96818399429 0.23655200005 -0.081628501415
          0.29582101107 0.86998897791 -0.39447298646 -0.58375400305 0.76066297293 -0.28394201398
          0.96766501665 0.19521400332 0.15973800421 0.25689101219 0.68954998255 0.67714697123
          -0.36055499315 0.83230602741 0.42103001475 0.96925097704 0.23128400743 -0.084020800889
          0.30058300495 0.87050199509 -0.38971298933 -0.59479898214 0.75715500116 -0.27005499601
          0.97071397305 0.19274799526 0.14339700341 0.35940700769 0.85253697634 0.37948301435
          -0.57000899315 0.78174698353 0.25290599465 0.9769179821 0.20135399699 -0.071329802275
          0.30714198947 0.87785899639 -0.36746099591 -0.59666597843 0.75893300772 -0.26078701019
          0.96804100275 0.22606599331 0.10858400166 0.31753599644 0.85153800249 0.41719698906
          -0.35455200076 0.89411699772 0.27358499169 0.97741597891 0.20956900716 0.027188099921
          0.95182102919 -0.30508300662 0.030996900052 -0.26920500398 -0.9629740119 0.0144520998
          0.40783199668 0.86692899466 -0.28654301167 -0.8001319766 0.55975097418 -0.21556200087
          0.39843401313 0.85519599915 0.33149600029 -0.80031597614 0.57408899069 0.17296299338
          0.35788300633 0.89334899187 -0.27174898982 -0.8091430068 0.55400800705 -0.19586199522
          0.40708199143 0.86190700531 0.30232700706 -0.80809897184 0.56680601835 0.16033400595
          0.41818198562 0.8677970171 -0.26842600107 -0.81155902147 0.55164402723 -0.19251300395
          0.41065600514 0.86054497957 0.30136999488 -0.81096500158 0.56163400412 0.16402000189
          0.92872399092 0.131329 -0.34673300385 0.78529298306 0.1524489969 -0.60006201267
          0.37567201257 0.92671400309 -0.0085198599845 0.074265599251 0.96836000681 -0.23825000226
          0.34297299385 0.93108397722 0.12430399656 -0.097473397851 0.91013002396 0.40269300342
          -0.79334700108 0.6064530015 0.053058199584 -0.96075797081 0.27241000533 -0.052306998521
          -0.97413498163 0.13315199316 -0.18256700039 -0.68102800846 -0.094412498176 -0.72614502907
          -0.49494001269 0.8685169816 -0.026693200693 -0.37454900146 0.92399102449 0.077163398266
          0.08642180264 0.95491099358 -0.28403499722 -0.28242599964 0.94643801451 0.15649299324
          0.97916197777 0.13389399648 0.15268799663 0.60710799694 0.14105400443 0.78200000525
          -0.94666898251 -0.31788501143 -0.052600599825 -0.89112299681 -0.36030301452 -0.27582800388
          -0.64004701376 -0.066255003214 -0.76547402143 -0.31644698977 -0.94556599855 -0.075936198235
          0.26160699129 -0.96177500486 0.080931298435 0.11119800061 -0.97963798046 0.1671680063
          0.56692999601 0.81770402193 0.099746897817 0.63220697641 0.63967400789 0.43718600273
          0.56518101692 0.79609197378 0.21635299921 -0.96818399429 0.23655299842 -0.081628598273
          -0.27806401253 0.73537498713 -0.61798399687 0.58375900984 0.76066100597 -0.28393799067
          -0.95338702202 0.23518900573 0.18905000389 -0.27571401 0.69999301434 0.65877997875
          0.36054599285 0.83230799437 0.42103499174 -0.96463698149 0.24374200404 -0.1003279984
          -0.28126999736 0.740218997 -0.610706985 0.5948010087 0.75715500116 -0.27005299926
          -0.95748198032 0.23235200346 0.17100100219 -0.35940799117 0.85253798962 0.37948098779
          0.57001501322 0.7817440033 0.2529039979 -0.96475100517 0.24245099723 -0.10233599693
          -0.34690600634 0.86501002312 -0.3625099957 0.59666502476 0.75893300772 -0.26078900695
          -0.96804100275 0.22606700659 0.10858400166 -0.31753599644 0.85153698921 0.41719898582
          0.35454401374 0.89411902428 0.27358698845 -0.97083002329 0.23819699883 0.027408700436
          -0.17832200229 0.98389101028 0.012642299756 0.99954998493 -0.029944300652 0.0016614199849
          -0.35141599178 0.88837999105 -0.29544600844 0.80012702942 0.55975699425 -0.215564996
          -0.39843401313 0.85519498587 0.33149901032 0.80031198263 0.57409399748 0.1729670018
          -0.35789000988 0.89334797859 -0.27174299955 0.80914199352 0.554009974 -0.19586199522
          -0.40708699822 0.86190497875 0.30232399702 0.80809700489 0.56680899858 0.16033400595
          -0.36070001125 0.89083701372 -0.27623400092 0.81156200171 0.5516409874 -0.19250799716
          -0.41065201163 0.86054599285 0.30137300491 0.81097000837 0.56162899733 0.16401399672
          -0.9287250042 0.131329 -0.34673199058 -0.78529399633 0.15245099366 -0.60006099939
          -0.37566998601 0.92671400309 -0.0085186399519 -0.074264898896 0.96836102009 -0.23824800551
          -0.34297600389 0.93108302355 0.12430299819 0.097487598658 0.9101279974 0.40269398689
          0.79334700108 0.6064530015 0.053058899939 0.84580498934 0.28096300364 -0.45351400971
          0.11370199919 0.99083000422 -0.072985701263 -0.18785500526 0.94325298071 -0.27383199334
          -0.075508199632 0.99311602116 -0.089551597834 0.86804699898 -0.48010599613 -0.12646199763
          0.72104597092 -0.55398702621 -0.41616201401 0.26554501057 -0.64029598236 -0.72076797485
          -0.020114699379 -0.99643301964 0.081959798932 -0.92713302374 -0.15240499377 0.34233999252
          -0.81533801556 -0.11241400242 0.56796699762 -0.35819399357 -0.15955899656 0.91991198063
          -0.93489700556 0.19027499855 0.29960501194 -0.81525301933 0.22514200211 0.53354799747
          -0.34933298826 0.28628700972 0.89219200611 0.99833601713 0.053128000349 0.022434499115
          0.71696698666 0.68276900053 -0.14065800607 0.064156897366 0.97607499361 -0.20775200427
          0.99856299162 -0.053392399102 -0.0045219599269 0.30956399441 -0.9504160285 0.029663300142
          -0.99376899004 -0.10861700028 0.025002500042 -0.83362001181 0.55232697725 -0.0036422000267
          0.50278502703 0.80220597982 0.32198300958 -0.77222502232 0.63480001688 -0.026420500129
          -0.91123598814 0.41119900346 -0.023773400113 0.9979659915 0.042149398476 0.047830298543
          0.41593301296 0.83050602674 -0.37048599124 -0.15913000703 0.98725801706 -0.00020992099599
          -0.82698702812 0.56193101406 -0.018058599904 0.5130699873 0.80693101883 0.2926119864
          -0.77763998508 0.62831801176 -0.022193700075 -0.89990997314 0.43562498689 -0.019813099876
          0.99792397022 0.049671001732 0.040992699564 0.42444100976 0.83540201187 -0.34921899438
          -0.15885700285 0.98729997873 -0.0016312899534 -0.82915198803 0.55881398916 -0.015290400013
          0.51735597849 0.80493098497 0.29056701064 -0.78079098463 0.62450402975 -0.018967499956
          -0.91280198097 0.40824601054 -0.011281399988 0.90313500166 0.42595499754 0.053937800229
          0.082927197218 0.99166798592 0.098581597209 -0.99438101053 -0.10478699952 -0.015060300007
          -0.83805298805 0.54558902979 -5.291080015e-05 -0.99682199955 -0.079392597079 -0.0065561798401
          0.89890599251 0.43558999896 0.047209400684 0.2679040134 -0.96330398321 0.016520800069
          -0.98993700743 -0.084240302444 -0.11370699853 0.18590199947 0.98140698671 0.047755699605
          0.95241898298 0.21811999381 -0.21288999915 0.11832399666 0.57124501467 -0.81220597029
          0.30142998695 0.53404402733 0.78989702463 -0.64462298155 0.60694998503 0.46483701468
          0.95561999083 0.21152199805 -0.20505799353 0.12009499967 0.58705002069 -0.80059301853
          0.31197598577 0.54992300272 0.77476197481 -0.66599202156 0.60405898094 0.43768399954
          0.9554309845 0.21085299551 -0.20661999285 0.12647999823 0.59249901772 -0.79558002949
          0.37058699131 0.62080997229 0.69084000587 0.13748699427 0.68512099981 0.71533697844
          0.14739200473 0.72800397873 -0.6695420146 0.79074198008 0.60730999708 -0.076814703643
          0.68106800318 0.73191201687 -0.021244600415 0.28146401048 0.95226097107 0.11822299659
          0.20031000674 0.97966098785 0.011865600012 0.19168899953 0.96775400639 0.16342200339
          0.87625700235 -0.071574099362 -0.47649899125 0.52076900005 0.12510600686 -0.84448099136
          0.69430100918 0.53330999613 0.48324599862 -0.73729300499 0.56921601295 -0.36385801435
          0.61093902588 0.49739399552 0.61591601372 -0.83568501472 0.50901901722 -0.20622800291
          -0.72342699766 0.51861900091 0.45572799444 0.42856898904 0.51083898544 0.74523299932
          -0.84580498934 0.28096199036 -0.45351299644 -0.11370299757 0.99083000422 -0.072985500097
          -0.37050300837 0.91807001829 0.14098100364 0.086973503232 0.99267500639 -0.083856798708
          -0.8680459857 -0.48010799289 -0.12646199763 -0.7210469842 -0.55398601294 -0.41616201401
          -0.25232800841 -0.64192402363 -0.72406101227 -0.00084354198771 -0.99899500608 0.044803399593
          0.017341399565 -0.99648201466 0.081995598972 0.93436300755 -0.13353200257 0.33035600185
          0.81572002172 -0.11388800293 0.56712502241 0.30932700634 -0.161650002 0.93711602688
          0.93489801884 0.19027599692 0.29960098863 0.81525200605 0.22514699399 0.5335469842
          0.30262100697 0.28990000486 0.90795302391 -0.99774801731 0.066789902747 0.0061886599287
          -0.71696698666 0.68276900053 -0.14065699279 -0.064862698317 0.98648899794 -0.1504420042
          -0.99917501211 -0.037528198212 0.015538199805 -0.8944169879 -0.44693100452 0.016467200592
          0.98949700594 -0.14254699647 0.023992799222 0.83362102509 0.5523250103 -0.0036400901154
          -0.50278502703 0.80220502615 0.32198399305 0.77221101522 0.63481599092 -0.026419300586
          0.91064798832 0.41249299049 -0.023884300143 -0.41593199968 0.83050400019 -0.37049001455
          0.15912300348 0.98725897074 -0.00020762099302 0.8260499835 0.56330800056 -0.018042000011
          -0.51307702065 0.80692797899 0.29260700941 0.77763301134 0.62832701206 -0.022193500772
          0.90016198158 0.43510401249 -0.019816700369 -0.42444199324 0.83540201187 -0.34921601415
          0.15885800123 0.98729997873 -0.0016296199756 0.90119099617 0.43312600255 -0.01601899974
          -0.5173509717 0.80493402481 0.29056799412 0.78079897165 0.62449401617 -0.018969999626
          0.90049898624 0.4347229898 -0.010812300257 -0.46658700705 0.87793397903 0.10736999661
          -0.082554101944 0.99241000414 0.091140799224 0.83716398478 0.54693299532 0.0046067200601
          -0.25625801086 -0.96636801958 0.021565999836 -0.89888399839 0.43736898899 0.02675480023
          -0.8993819952 -0.43667900562 0.020574100316 -0.24636000395 -0.96893000603 0.021950699389
          -0.21730099618 0.97543698549 0.036089599133 -0.95241898298 0.21811999381 -0.2128880024
          -0.12238200009 0.57012200356 -0.81239402294 -0.3014279902 0.53404301405 0.78989797831
          -0.11706899852 0.58384400606 0.80338102579 -0.95562297106 0.21151700616 -0.20504899323
          -0.13007999957 0.58257901669 -0.80229699612 -0.3119699955 0.549924016 0.77476400137
          -0.12255600095 0.60083097219 0.78992497921 -0.95543199778 0.21085399389 -0.2066179961
          -0.13046200573 0.59140002728 -0.79575502872 -0.37058401108 0.62080800533 0.69084298611
          -0.13748599589 0.68511998653 0.71533799171 -0.14196200669 0.72829699516 -0.67039501667
          -0.79073899984 0.60731399059 -0.076815001667 -0.6810669899 0.73191297054 -0.021243199706
          -0.27918899059 0.95355200768 0.11310300231 -0.19858500361 0.97990602255 0.018646299839
          -0.19168399274 0.96775501966 0.16342400014 -0.87625700235 -0.071572601795 -0.47649800777
          -0.52076900005 0.12510700524 -0.84448099136 -0.69430100918 0.53331202269 0.48324400187
          0.73729401827 0.5692139864 -0.36385801435 -0.61093902588 0.49739301205 0.615917027
          0.83568501472 0.50901699066 -0.20623099804 0.7234249711 0.51861798763 0.45573100448
          -0.42856401205 0.51083898544 0.74523597956 0.97802197933 0.17208400369 -0.11772599816
          0.99641102552 0.031636700034 -0.07851280272 0.29290899634 -0.012388500385 -0.95605999231
          0.87181198597 0.14398799837 -0.46819999814 0.76707100868 0.16344299912 -0.62039399147
          0.25122699142 0.95829200745 -0.13624200225 0.93436300755 0.15148200095 -0.32251900434
          -0.15157599747 0.96066302061 -0.23270499706 -0.59058701992 0.80569702387 -0.045376699418
          0.36550199986 0.91544097662 0.16845099628 -0.13416799903 0.97830802202 0.15783600509
          -0.21100099385 0.96753799915 -0.13909700513 -0.93096899986 0.0920329988 0.3533090055
          -0.82789599895 0.12090999633 0.54769402742 -0.36054500937 0.15347400308 0.92002898455
          0.99557000399 -0.053707398474 -0.077169902623 0.97579598427 -0.16320100427 -0.14555700123
          0.86353302002 -0.044814299792 -0.5022969842 0.31485599279 -0.019063500687 -0.9489480257
          0.38729700446 -0.916647017 -0.098786599934 0.88417500257 -0.46440300345 -0.050650600344
          0.32956600189 -0.94410300255 -0.0074489000253 0.51860100031 -0.60990399122 -0.59922498465
          0.014064299874 -0.64859598875 -0.76100301743 -0.10510700196 -0.99210399389 0.068432301283
          -0.10940700024 -0.99347501993 0.032214600593 -0.23931500316 -0.96483999491 0.10868600011
          0.018067000434 -0.99983501434 0.0018731900491 -0.18262499571 -0.97192502022 0.14835700393
          0.00089076597942 -0.99975001812 -0.022328900173 -0.059305500239 -0.98173898458 0.18075400591
          -0.98500001431 -0.066465802491 0.15924100578 -0.60214501619 -0.14946399629 0.78427201509
          -0.052995301783 -0.16566300392 0.98475700617 -0.97166800499 0.18437300622 0.14787499607
          -0.53622102737 0.79825502634 0.27432999015 -0.37793800235 0.79370898008 0.47664400935
          -0.020334700122 0.92261201143 0.3851929903 0.95659202337 0.28987801075 -0.030048299581
          0.41545701027 0.83145701885 -0.36888301373 0.27505999804 0.95052099228 -0.14440399408
          -0.47669398785 0.74028599262 -0.47406598926 0.048056598753 0.99425500631 -0.095640003681
          -0.9952750206 0.095284603536 0.01866379939 0.95746099949 -0.28826600313 0.013090999797
          -0.27321100235 -0.96146601439 0.030632600188 0.9930639863 0.10397200286 0.054889101535
          0.49641099572 0.80746001005 0.31872299314 0.5065870285 0.82156997919 -0.26151999831
          0.28858301044 0.89707702398 0.33462199569 0.17197799683 0.92747700214 0.33197900653
          0.1773519963 0.93175697327 -0.31682100892 -0.83464097977 0.55017799139 -0.026062000543
          0.9583709836 0.28190299869 0.045340400189 0.4214490056 0.83016401529 -0.36497700214
          0.91350102425 0.2865369916 0.2888109982 0.29777100682 0.8699939847 -0.39299198985
          -0.49514201283 0.73801898956 -0.45843499899 0.16864199936 0.81107199192 0.56010901928
          0.059415601194 0.99823200703 0.001470600022 0.9937390089 0.10222899914 0.045072600245
          0.5063650012 0.81225097179 0.28955599666 0.51501899958 0.82274001837 -0.24052900076
          0.29525598884 0.90504199266 0.30614298582 0.1762650013 0.93609601259 0.30439299345
          0.18197800219 0.9397289753 -0.28947201371 -0.83828502893 0.54480099678 -0.021663799882
          -0.99540299177 0.09413009882 -0.017666399479 0.895811975 -0.44209501147 0.045536801219
          -0.27705800533 -0.96067500114 0.018526200205 0.95960998535 0.27898898721 0.036260899156
          0.42980098724 0.83479601145 -0.34407401085 0.92137598991 0.28333601356 0.26605701447
          0.30443200469 0.87746500969 -0.37064400315 -0.49603998661 0.74713897705 -0.4424110055
          0.18939900398 0.90385997295 0.3836210072 0.059959601611 0.99820101261 -0.00059206702281
          0.97351002693 -0.22261999547 0.052142899483 0.061849400401 -0.99781501293 0.023225400597
          0.99852597713 0.039599400014 0.037116799504 0.99432599545 0.099915198982 0.036507900804
          0.51055401564 0.8103479743 0.28752499819 0.51865202188 0.81892699003 -0.24568200111
          0.29797899723 0.90409898758 0.30629101396 0.17798000574 0.93540298939 0.30552199483
          0.1831420064 0.9378669858 -0.29472801089 -0.84102898836 0.54068297148 -0.018201099709
          0.98141902685 -0.18768000603 0.03991509974 0.9614560008 0.27131399512 0.044611699879
          0.93433797359 0.31415599585 0.16828100383 0.30899301171 0.94793599844 0.077078700066
          -0.21859100461 0.94197201729 0.25476899743 0.067060299218 0.99626797438 0.054349500686
          0.89534401894 -0.44396299124 0.035443298519 -0.2685559988 -0.96312999725 0.016079299152
          0.89783102274 0.43979400396 0.021911999211 -0.99442601204 0.10510700196 -0.0083221700042
          0.89762097597 -0.43971499801 0.030444599688 0.33445799351 -0.9419760108 0.028632299975
          -0.075182199478 -0.99691098928 0.022721799091 0.16766099632 0.9857339859 0.014775100164
          0.98277699947 0.17825199664 0.048736400902 0.97403997183 -0.22351999581 0.035848099738
          0.097755201161 -0.99469298124 0.032097298652 0.98484200239 0.16236799955 -0.06101769954
          0.97403997183 0.15806600451 0.16205500066 0.98547697067 0.15818800032 -0.061740301549
          0.97718900442 0.15523500741 0.14492799342 0.98521399498 0.15709599853 -0.068365603685
          0.9780009985 0.16080600023 0.13287399709 0.25452101231 0.65259897709 0.7136759758
          -0.77906799316 0.58700698614 0.22017399967 0.03392810002 0.90924102068 -0.4148850143
          -0.11361200362 0.93622100353 -0.33254000545 -0.24058699608 0.94308102131 -0.22960099578
          0.43288999796 0.8961520195 0.097562402487 0.39512199163 0.86788398027 0.30109098554
          0.30278500915 0.87629801035 0.37473198771 0.73473197222 0.013525299728 -0.67822301388
          0.9525949955 0.026285199448 -0.3031040132 -0.60498398542 0.67170697451 -0.4275560081
          0.63951301575 0.56107598543 0.52556300163 -0.63046598434 0.55511200428 0.5425530076
          -0.99641102552 0.031635001302 -0.078514397144 -0.97802299261 0.17208200693 -0.11772699654
          -0.28003299236 -0.01161979977 -0.95991998911 -0.19418300688 0.94251698256 -0.27194499969
          -0.87181198597 0.14398799837 -0.46819999814 -0.93436300755 0.15148200095 -0.32251799107
          -0.25122600794 0.95829200745 -0.13624100387 0.15157699585 0.96066200733 -0.23270599544
          -0.36550599337 0.91544002295 0.16844700277 -0.033630598336 0.91288900375 0.4068210125
          0.084546200931 0.97945600748 -0.18308100104 0.18850800395 0.97313797474 -0.13216300309
          0.12591999769 0.97915297747 0.15938399732 0.93683999777 0.10981100053 0.33207198977
          0.99080902338 0.013265199959 0.13461500406 0.93535602093 0.0077247400768 0.35362398624
          0.84570598602 0.099472999573 0.5242959857 0.3113310039 0.15494099259 0.93758499622
          -0.97579598427 -0.16320100427 -0.14555700123 -0.99557000399 -0.053704701364 -0.077171199024
          -0.86353302002 -0.044814001769 -0.5022969842 -0.30028799176 -0.018694199622 -0.95366501808
          -0.82220697403 -0.51101899147 -0.25066798925 -0.34673199058 -0.93779098988 -0.018038900569
          -0.8841739893 -0.46440398693 -0.050651799887 -0.51860499382 -0.60989701748 -0.59922802448
          -0.19240300357 -0.9763879776 -0.098221197724 -0.18449400365 -0.98246902227 -0.026767700911
          0.089769400656 -0.99421197176 0.05902050063 0.23931099474 -0.96484100819 0.10868500173
          0.02813710086 -0.9992120266 0.028006700799 -0.020692599937 -0.99966901541 -0.015285099857
          0.17699499428 -0.97509598732 0.13364499807 0.05133780092 -0.98193699121 0.1821089983
          0.98097902536 -0.10947900265 0.16029499471 0.60214698315 -0.14946199954 0.78426998854
          0.97166901827 0.18436999619 0.14787299931 0.53620797396 0.79826402664 0.27432799339
          0.59472298622 0.26613399386 0.75860202312 -0.95659101009 0.28988000751 -0.030047999695
          -0.41545799375 0.83145701885 -0.36888301373 -0.27459400892 0.94567102194 -0.17408399284
          -0.15395000577 0.75576102734 -0.63649398088 -0.048060901463 0.99425500631 -0.095638900995
          0.99456501007 0.10387700051 0.0071334801614 -0.9574559927 -0.28822401166 0.014346400276
          -0.30079299212 -0.95359098911 0.013707100414 0.27346399426 -0.96139997244 0.030469799414
          -0.99451100826 0.087006397545 0.058113500476 -0.49640500546 0.80746501684 0.3187200129
          -0.28858500719 0.8970760107 0.3346259892 -0.50658500195 0.82157099247 -0.26152101159
          -0.17197600007 0.92747700214 0.33198100328 0.83463102579 0.55019301176 -0.02605840005
          0.7765840292 0.57399600744 -0.2597039938 -0.9883030057 0.14382000268 0.050729800016
          -0.42144298553 0.83016300201 -0.36498698592 -0.25890100002 0.88074499369 -0.39655700326
          -0.4348950088 0.81009399891 0.39320999384 -0.15920099616 0.76081997156 -0.62913197279
          -0.059418901801 0.99823200703 0.0014714699937 -0.16864100099 0.81107097864 0.56011098623
          0.99189001322 0.12585000694 -0.017782200128 -0.99595797062 0.077715598047 0.045041900128
          -0.50636601448 0.81225299835 0.28954899311 -0.29526099563 0.90504002571 0.30614200234
          -0.51502001286 0.8227429986 -0.24051600695 -0.1762650013 0.93609601259 0.30439200997
          0.8382819891 0.54480701685 -0.021663999185 0.7889379859 0.56767100096 -0.23521700501
          -0.9848870039 -0.1665430069 0.047543499619 -0.98884701729 0.14444200695 0.036303400993
          -0.42980399728 0.83479702473 -0.34406900406 -0.26477700472 0.88887298107 -0.37389498949
          -0.44396099448 0.81726402044 0.36739501357 -0.1849630028 0.90635001659 -0.37989199162
          -0.059960901737 0.99820101261 -0.00059182400582 -0.18939900398 0.903858006 0.38362500072
          -0.28150001168 -0.95897299051 0.033605098724 0.27495500445 -0.96128201485 0.018375100568
          -0.25206398964 -0.96732902527 0.027166599408 -0.99872297049 0.036455001682 0.034976501018
          -0.99501001835 0.093371503055 0.03516620025 -0.51054102182 0.8103569746 0.28752300143
          -0.29797899723 0.9040979743 0.30629399419 -0.51865702868 0.8189240098 -0.24568100274
          -0.17797900736 0.93540298939 0.30552399158 0.84103399515 0.54067701101 -0.01820169948
          0.79161602259 0.56537300348 -0.23172700405 0.99834698439 -0.056162100285 -0.012213800102
          -0.96145701408 0.27131199837 0.044611699879 -0.3068599999 0.94951301813 0.065286502242
          -0.44155499339 0.80098897219 0.4042840004 -0.065879702568 0.99685400724 0.044069800526
          0.21858400106 0.94197201729 0.25477299094 0.99530398846 0.096690297127 -0.0045281401835
          0.26651600003 -0.96369498968 0.016147699207 -0.29383599758 0.95576298237 0.013309200294
          -0.97025197744 -0.23956400156 0.034919198602 -0.8978099823 -0.43940201402 0.029359100387
          -0.94244998693 0.33308601379 0.029007300735 -0.97280299664 -0.23022200167 0.02552869916
          0.99337500334 0.01606320031 -0.11378599703 -0.98484200239 0.16236799955 -0.061015501618
          -0.97403901815 0.15806600451 0.16205899417 -0.98547798395 0.15818400681 -0.061735998839
          -0.97718900442 0.15523600578 0.14492699504 -0.98521399498 0.1570969969 -0.068364396691
          -0.97800201178 0.1608030051 0.13287200034 -0.25451898575 0.65259802341 0.71367800236
          0.77906799316 0.58700698614 0.22017100453 -0.24972200394 0.17127600312 -0.95304900408
          -0.010744700208 0.93984502554 -0.34143099189 0.18446999788 0.95900398493 -0.21513099968
          -0.43288901448 0.8961520195 0.097566798329 -0.3951190114 0.86788702011 0.30108699203
          -0.3027870059 0.87629699707 0.37473198771 -0.73473197222 0.01352639962 -0.67822301388
          -0.95259600878 0.026286400855 -0.30310198665 0.6049849987 0.67170500755 -0.42755699158
          -0.63951599598 0.56107497215 0.52556097507 0.63046002388 0.55511301756 0.54255902767
          -0.88043302298 0.47412699461 0.0063892900944 -0.8998079896 0.43535798788 0.028435299173
          0.89939802885 0.43271300197 0.061993800104 0.97284197807 0.2219530046 0.065697796643
          -0.16933700442 0.98012399673 0.10334900022 -0.97510302067 -0.2214320004 0.011897199787
          0.97336399555 -0.2223290056 0.055972699076 -0.89967602491 -0.43655601144 -0.0012027999619
          0.8995860219 -0.43468499184 0.042348001152 0.34222000837 -0.93208301067 -0.11877000332
          0.39867201447 -0.9078540206 -0.12984900177 0.18232899904 -0.98035997152 0.075167097151
          0.1580709964 0.9831020236 0.092330701649 -0.97360998392 0.22752000391 0.01784200035
          -0.71624600887 0.69773799181 0.012397900224 0.9017329812 0.4298619926 0.045781798661
          0.96242600679 0.2662140131 0.053530700505 0.027564799413 0.99874597788 0.041804000735
          -0.95835399628 -0.28522199392 0.014348399825 0.98753398657 -0.14761699736 0.054640699178
          -0.90030300617 -0.43502798676 0.014300200157 0.9009630084 -0.430768013 0.052007600665
          0.39143300056 -0.64656502008 -0.65477800369 -0.78072100878 0.62430602312 0.026756899431
          -0.29065799713 0.93935197592 0.18203300238 -0.97851699591 0.20296700299 0.036187898368
          -0.99080300331 -0.12942300737 0.039473600686 -0.90862500668 -0.41567099094 0.040225699544
          0.93940097094 0.18692700565 0.28737300634 0.042945101857 -0.00029033899773 0.99907702208
          0.042945101857 -0.00029033899773 0.99907702208 0.95521700382 -0.29194700718 0.048243600875
          0.9046599865 -0.42353999615 0.046952400357 0.042945101857 -0.00029033899773 0.99907702208
          -0.13202300668 -0.99109697342 0.017228599638 0.083644501865 0.98057299852 0.17742599547
          -0.10304100066 0.99404102564 -0.035570900887 0.12925599515 0.99159002304 -0.0064635300077
          -0.40811800957 0.90352201462 0.13072000444 0.02428410016 0.97234499454 0.2322819978
          -0.075356900692 0.99316197634 -0.08916939795 0.002507050056 0.0032521500252 0.99999201298
          0.0025629899465 0.003226079978 0.99999201298 0.87370699644 0.40904399753 0.26328599453
          0.83822697401 0.43467101455 -0.32929599285 0.83822697401 0.43467101455 -0.32929599285
          0.230437994 0.97305202484 0.0082853604108 0.656036973 -0.75462400913 0.012549100444
          -0.089824400842 0.95493501425 -0.28289601207 -0.086556598544 0.87586897612 -0.47472301126
          -0.072898901999 0.99621397257 -0.047372099012 -0.065467603505 0.99682897329 -0.045240901411
          -0.082529500127 0.77237099409 -0.62978798151 -0.042663499713 0.36825200915 -0.92874699831
          -0.08480130136 0.97086501122 -0.22411899269 -0.08287910372 0.98646098375 -0.14151500165
          -0.060133099556 0.52582198381 -0.8484659791 0.043116599321 -0.00058068602812 0.99906998873
          -0.99966102839 1.3214599903e-07 0.026034699753 -0.99966102839 1.3214599903e-07 0.026034699753
          -0.99966102839 1.4760600209e-07 0.026034699753 -0.99952101707 1.2301200059e-07 0.03094260022
          0.34688699245 0.22246199846 -0.91114199162 0.0059620398097 0.79037201405 -0.61259800196
          0.6384549737 0.47796198726 0.60326302052 -0.63310700655 0.64513999224 -0.42774999142
          0.51211500168 0.78295499086 0.35315799713 0.62150299549 0.3827239871 0.68356198072
          0.51867097616 -0.60948699713 -0.59958797693 0.013685500249 -0.65038698912 -0.75947999954
          -0.96279299259 -0.21981599927 0.15719300508 -0.57935798168 -0.3081510067 0.75457698107
          -0.048784300685 -0.34290400147 0.93810302019 0.091742999852 0.99576401711 -0.0060350000858
          0.17242999375 0.94605100155 0.27432700992 0.25691199303 0.51771402359 0.81606900692
          0.16940200329 0.56559598446 -0.80709600449 -0.76186102629 0.64613997936 0.045504201204
          0.18365299702 0.56895297766 -0.80160099268 0.19402100146 0.5786730051 0.79214501381
          0.18022200465 0.58551597595 -0.790373981 -0.76823198795 0.63986897469 0.01966759935
          -0.97883301973 -0.20453099906 -0.0072558000684 0.23614700139 0.57074600458 -0.786436975
          0.23805999756 0.55517399311 0.79693698883 0.21364100277 0.59235197306 -0.77683800459
          0.24659900367 0.57270598412 0.78179097176 0.24964100122 0.58888602257 -0.76869601011
          0.23582300544 0.59720897675 0.76663500071 0.64477902651 0.60178601742 0.47128900886
          -0.63413500786 0.62866902351 -0.45016399026 0.6406930089 0.50606697798 0.57741600275
          -0.60473698378 0.56413197517 0.56218200922 0.15654499829 0.60139399767 0.78346598148
          -0.34688600898 0.22246199846 -0.91114300489 -0.6384549737 0.4779599905 0.60326498747
          0.63310801983 0.64513897896 -0.42774999142 -0.51211702824 0.78295302391 0.35315799713