<VTKFile type="PolyData" version="0.1" byte_order="LittleEndian">
  <PolyData>
    <Piece NumberOfPoints="154" NumberOfVerts="0" NumberOfLines="0" NumberOfStrips="0" NumberOfPolys="112">
      <PointData Normals="Normals">
        <DataArray type="Float32" Name="Normals" NumberOfComponents="3" format="ascii" RangeMin="0.9999994607" RangeMax="1.000000625">
          0.99809098244 -0.046844400465 -0.04026030004 0.96935099363 0.24450799823 0.02397570014
          0.99883300066 -0.031306900084 0.036781899631 0.99633800983 0.085066601634 -0.0086409095675
          -0.30082300305 0.42076298594 -0.85584098101 0.18484500051 0.97380298376 0.13243800402
          -0.075818002224 -0.99624097347 0.041889000684 0.025486100465 -0.78865098953 0.61431199312
          0.0084017300978 -0.98142302036 0.19167099893 -0.97346997261 -0.16907599568 -0.15417400002
          -0.98119801283 -0.18237799406 0.063162699342 0.26314100623 -0.087345600128 -0.96079498529
          -0.042944900692 0.00029006900149 0.99907702208 -0.011333200149 0.060727998614 -0.99809002876
          0.046594001353 0.16576400399 0.98506402969 -0.99989801645 -0.0056128501892 -0.013124000281
          0.55526697636 -0.80955398083 0.19052900374 0.66246598959 -0.1346269995 -0.73689502478
          0.10690800101 0.99384701252 0.028964700177 -0.26427400112 0.96405297518 -0.027589200065
          -0.57762598991 0.40119099617 -0.71091097593 -0.021610600874 0.99966400862 0.01429739967
          0.11123500019 0.97956502438 0.16756699979 0.90864300728 0.41544398665 0.042126901448
          0.28399500251 0.036040801555 -0.95814800262 -0.10293900222 0.99404197931 0.035825200379
          0.61894100904 0.3534129858 -0.70143502951 0.26913198829 0.96253198385 -0.033178001642
          -0.98532700539 -0.077617697418 -0.15200600028 -0.59324002266 -0.18527400494 0.78341501951
          -0.26299700141 -0.90601801872 0.3316090107 0.06204289943 -0.9880130291 0.14135199785
          0.12415400147 -0.6138330102 0.77961200476 0.91684901714 -0.3981359899 0.02958310023
          0.36182698607 -0.86220997572 0.35450598598 0.1397099942 -0.96187597513 -0.2351090014
          0.3948380053 -0.9187309742 0.0060331998393 0.9972640276 -0.070186197758 -0.02322060056
          0.97439301014 -0.22261700034 0.03162850067 0.73649197817 0.5501459837 -0.39359799027
          0.084801197052 -0.97086501122 -0.22411899269 -0.19711099565 -0.97848200798 0.060995899141
          0.78208100796 -0.62291699648 -0.017984500155 -0.0025632800534 -0.0032259500585 0.99999201298
          0.075356796384 -0.99316197634 -0.089169599116 0.77463597059 -0.63192397356 -0.024732200429
          -0.86181801558 -0.5057309866 0.038804098964 0.21092799306 -0.975695014 0.059407301247
          -0.81129598618 -0.56148898602 0.1628780067 0.082878999412 -0.98646098375 -0.14151600003
          -0.83822697401 -0.43467199802 -0.32929500937 -0.25113800168 -0.29333499074 0.92243397236
          -0.28943300247 -0.12849000096 0.94853502512 -0.95666998625 -0.027299299836 -0.28988999128
          0.35389900208 -0.86867302656 0.34664401412 -0.90485697985 0.42363101244 0.042080901563
          -0.88125401735 0.46811199188 -0.065285898745 0.86312502623 0.23568600416 -0.44661700726
          0.018300199881 -0.92311698198 0.38408300281 0.98766899109 0.091269902885 -0.12720300257
          0.98996502161 0.088031701744 0.11054000258 -0.29512700438 0.035735301673 -0.95478898287
          0.086556702852 -0.87586897612 -0.47472301126 0.7794200182 -0.62615597248 -0.020838100463
          0.91532498598 -0.40098699927 0.037287201732 0.042663000524 -0.36825299263 -0.92874598503
          0.043138798326 -0.95873600245 -0.28100499511 -0.84181898832 -0.53955799341 -0.014763100073
          -0.95823097229 -0.2857260108 0.012445700355 -0.97106301785 -0.23689299822 0.030289800838
          0.29014900327 -0.93940800428 0.18255600333 0.20372000337 -0.97902697325 0.0019446300576
          0.8466719985 -0.20091000199 -0.4927290082 -0.087852202356 -0.93794101477 0.33548301458
          -0.0120037999 -0.079404100776 -0.9967700243 0.086034402251 -0.99597001076 -0.025330999866
          0.20568299294 -0.8717520237 0.44468298554 0.66862499714 -0.60353797674 0.43437600136
          0.84204798937 -0.53913199902 -0.017106499523 -0.3582290113 -0.10346099734 -0.92788302898
          -0.7462990284 -0.66159498692 0.073000900447 0.71428602934 -0.65035200119 0.25853198767
          -0.1936929971 -0.91276699305 0.35963699222 0.49747499824 -0.86733901501 0.015530800447
          0.81484502554 -0.36414799094 -0.45102599263 0.84666901827 0.012015099637 -0.5319839716
          0.32457500696 -0.15494899452 0.93308198452 0.024462800473 -0.80155700445 0.59741801023
          -0.36690101027 -0.86022901535 0.35410499573 -0.29936900735 -0.90482598543 0.30276700854
          -0.51950699091 -0.80502402782 0.28644299507 -0.29096099734 -0.89801698923 0.33001101017
          -0.18807899952 -0.97959399223 0.070869602263 0.03322520107 -0.97355097532 -0.22604100406
          0.29866600037 -0.90507900715 0.30270600319 0.58317697048 -0.18232999742 -0.79161900282
          0.11113599688 -0.61988198757 0.77678501606 -0.16917599738 -0.98171198368 0.087302401662
          -0.27522999048 -0.086136102676 -0.95751202106 -0.2646690011 -0.14662900567 -0.95312702656
          -0.12959599495 -0.97860300541 0.15981400013 0.99392199516 -0.10714899749 0.025263499469
          -0.54027599096 -0.8408960104 0.031546998769 0.1320990026 0.99107402563 0.017943199724
          -0.99554598331 -0.067083202302 0.066242203116 -0.89845997095 0.43779999018 0.033192399889
          -0.93621402979 0.26658600569 -0.22898599505 -0.59539502859 0.095871597528 0.79769301414
          0.053406201303 0.98183500767 0.18206299841 -0.9951660037 0.097155697644 -0.01435310021
          -0.12715399265 -0.99184000492 -0.0092554604635 0.0096686696634 -0.97867697477 0.2051769942
          -0.024284400046 -0.97234499454 0.23228299618 0.065467499197 -0.99682897329 -0.045240901411
          -0.99496299028 -0.078983597457 -0.061719100922 -0.87443298101 -0.40938198566 0.26033300161
          -0.29978001118 -0.87031197548 -0.39075601101 -0.36988699436 -0.15995499492 -0.91520398855
          0.58696597815 -0.75957000256 -0.28022199869 0.12444400042 0.98894697428 -0.080604799092
          0.99443602562 -0.10507100075 -0.0075369002298 -0.99613499641 -0.087835498154 0.00016374900588
          -0.96381002665 -0.1902589947 0.18674199283 -0.99125897884 -0.13080699742 -0.017189400271
          0.47479298711 -0.88006299734 0.0077685802244 0.18003299832 -0.98356598616 0.013638599776
          0.059727098793 -0.9982150197 0.00066627102206 -0.94647997618 0.32274800539 0.003061180003
          0.23857399821 0.97078597546 0.025618899614 -0.99654597044 0.080394402146 0.0208011996
          -0.86621600389 0.17197099328 0.46914300323 -0.42580398917 -0.12543900311 -0.89607799053
          -0.14144900441 -0.9862729907 -0.085188597441 0.26499000192 -0.94764602184 0.17817600071
          0.60729300976 -0.14125500619 0.78181999922 0.95830398798 0.026900600642 -0.28448098898
          0.85518300533 0.12762899697 0.50236701965 -0.0081816501915 0.64950102568 -0.76031702757
          0.38964799047 0.63778197765 -0.66438597441 0.32242500782 0.16139900684 0.9327340126
          -0.043116301298 0.00058013998205 0.99906998873 -0.89839798212 0.0095693897456 -0.43907800317
          0.95846199989 -0.28276398778 0.037356100976 -0.67874902487 -0.11190100014 -0.72579497099
          0.14768999815 -0.98517298698 -0.087304897606 -0.50650799274 -0.80212897062 0.31628999114
          -0.99890601635 0.0069418898784 -0.046237599105 -0.0025074400473 -0.0032519700471 0.99999201298
          0.37874999642 -0.92548602819 -0.0050083701499 0.072898797691 -0.99621397257 -0.047372099012
          -0.042944900692 0.00029006900149 0.99907702208 0.99976700544 0.0011992199579 -0.021575000137
          0.97561097145 -0.15509499609 0.15533399582 0.9996650219 -0.025862000883 -1.8671400539e-05
        </DataArray>
      </PointData>
      <CellData>
      </CellData>
      <Points>
        <DataArray type="Float32" Name="Points" NumberOfComponents="3" format="ascii" RangeMin="0.053050239698" RangeMax="2.6986224967">
          0.27707400918 0.072763197124 -2.3498799801 0.27597698569 0.19872699678 -2.2001199722
          0.25619599223 0.10090699792 -1.6674200296 -0.096208103001 0.20878900588 -1.5817400217
          -0.079988799989 0.21079599857 -2.6754899025 -0.084687300026 0.25119200349 -2.3702099323
          0.0028520401102 0.027770200744 -0.92788398266 0.0092032803223 -0.0014124100562 -2.5132598877
          0.0094935595989 0.024343099445 -2.4849600792 0.10126200318 0.030785599723 -1.0791900158
          0.11463999748 0.034588500857 -2.2875499725 0.086077198386 0.034060899168 -2.6758000851
          0.0095739597455 0.19584800303 -0.62617200613 0.0084685003385 0.211225003 -2.6903300285
          0.010075899772 0.22747699916 -2.4107599258 0.10069300234 0.16689799726 -1.535580039
          0.14138999581 0.034309800714 -2.5332899094 0.17166000605 0.074814297259 -2.6430499554
          -0.12636899948 0.24932800233 -2.1559200287 -0.22121800482 0.23318299651 -2.440030098
          -0.1582480073 0.20958000422 -2.6327600479 -0.10902400315 0.22621400654 -1.0694899559
          -0.06310120225 0.2519389987 -2.3947799206 0.19044600427 0.17980900407 -0.016700500622
          0.095849499106 0.18203499913 -2.6826400757 0.12976199389 0.25324600935 -2.2938098907
          0.17064200342 0.2096759975 -2.6361699104 0.23312599957 0.23328399658 -2.4435300827
          0.097303703427 0.053357601166 -1.0789500475 0.076473601162 0.060595698655 -2.3961799145
          0.079018101096 0.035088300705 -2.4032099247 0.12678299844 0.027365200222 -1.6310499907
          0.13801400363 -0.0075345002115 -1.6760200262 0.25077599287 0.059813801199 -1.8223199844
          0.22650000453 0.039161600173 -1.6533499956 0.23482699692 0.043163601309 -2.4679999352
          0.2223969996 0.047935400158 -1.535490036 0.27284699678 0.031977999955 -2.3471601009
          0.23374600708 0.070635199547 -0.92793399096 0.22017900646 0.22509500384 -2.5538198948
          0.039309900254 -0.20722700655 -0.54493200779 -0.093033403158 -0.021644599736 -2.5828800201
          -0.14438700676 -0.042769499123 -1.7193000317 0.039309900254 -0.21722400188 -0.038472998887
          0.039309900254 -0.21347999573 -0.50930202007 -0.15345300734 -0.044333700091 -2.0992898941
          0.13882400095 -0.0096318600699 -2.2949399948 0.10649699718 -0.021675400436 -2.5878601074
          0.14089600742 -0.027837099507 -1.7035700083 0.16981300712 -0.20298500359 -0.50860798359
          0.00957396999 0.047223001719 -0.62617200613 0.047921601683 0.035151898861 -2.4174399376
          0.046647101641 0.060697201639 -2.4096200466 0.067208997905 0.052948601544 -0.97849100828
          0.086849503219 -0.01826970093 -2.5476200581 -0.21173499525 0.18868400156 -0.64565497637
          -0.25817000866 0.21924500167 -2.3420898914 0.22767700255 0.20768199861 -2.5640399456
          0.0099967699498 0.035169698298 -2.4214000702 -0.090768203139 0.20032100379 -1.0671099424
          -0.10077700019 0.2238059938 -2.2739899158 -0.080957099795 0.18197800219 -2.6803600788
          0.039309900254 -0.20010000467 -0.56773298979 -0.14853699505 -0.043523501605 -1.9117100239
          0.25837299228 0.060991000384 -2.0143299103 0.16981300712 -0.16278000176 -0.58803600073
          0.16294999421 -0.04357669875 -2.3030500412 0.14329199493 -0.034655701369 -1.7284300327
          -0.27276301384 0.079139202833 -2.1930301189 -0.23048099875 0.070657998323 -0.93225502968
          0.1752499938 0.042504899204 -0.016599200666 0.18215599656 0.038589499891 -1.3878699541
          0.18148699403 0.055284000933 -2.6182000637 -0.038627699018 -0.02683239989 -2.5434200764
          0.0084574101493 -0.019280299544 -2.6787400246 0.18762899935 0.036182101816 -0.6310480237
          0.2178940028 -0.024892399088 -2.274009943 -0.13634699583 -0.0077137798071 -1.8575700521
          -0.13804900646 -0.034726798534 -1.7186900377 -0.11869499832 -0.0070163197815 -2.6505200863
          -0.14754000306 0.024397099391 -2.6400799751 -0.14567199349 -0.028428399935 -2.2645699978
          -0.12461999804 0.018651299179 -1.6449400187 0.19044600427 0.051692299545 -0.016700500622
          0.22017900646 0.065018303692 -2.5538198948 0.22767700255 0.082818500698 -2.5640399456
          -0.028185600415 0.060667999089 -2.4057600498 -0.03740260005 -0.001295509981 -2.5043299198
          -0.22283299267 0.039114199579 -1.6455299854 -0.23168599606 -0.025968799368 -1.718479991
          -0.24360199273 -0.018096199259 -1.7184100151 -0.24610300362 -0.026892399415 -2.0984799862
          -0.17208300531 -0.040623199195 -2.3039400578 0.21888400614 -0.023971199989 -2.3765900135
          0.23541499674 -0.02595599927 -1.7264300585 0.15812699497 0.024480100721 -2.6441700459
          0.15097700059 -0.0072855101898 -2.2437000275 -0.065068498254 0.030517099425 -0.96733599901
          -0.071367897093 0.033999901265 -2.673609972 -0.061871498823 -0.01852799952 -2.6678600311
          0.083666197956 0.029058199376 -2.4159998894 -0.1075399965 0.059114299715 -2.1879899502
          -0.15615400672 0.044029999524 -2.5851900578 0.028884500265 0.20250700414 -0.017075100914
          0.11003000289 0.059790600091 -2.2859499454 -0.23437599838 0.19948600233 -1.3799699545
          -0.25079301 0.20507100224 -2.4651401043 0.075627297163 0.22700800002 -2.3938400745
          -0.029268199578 0.25247201324 -2.4121100903 0.10136800259 0.20900399983 -1.5935100317
          0.024615500122 0.022213900462 -0.63144797087 0.0098884701729 0.029133200645 -2.4358999729
          0.030874399468 0.020912200212 -0.037732999772 0.039309900254 -0.23396399617 -0.05795700103
          -0.26434698701 0.031972300261 -2.3430399895 -0.21173499525 0.054303899407 -0.64566099644
          -0.23413899541 0.050163000822 -2.0064299107 -0.10804399848 0.0059708100744 -2.6560800076
          -0.12146700174 0.021292699501 -2.15666008 0.12809699774 0.245728001 -2.532020092
          -0.096918903291 0.055332999676 -1.5239900351 0.11267100275 0.059193000197 -2.1996700764
          0.10897699744 0.034825898707 -2.3434000015 0.10733699799 0.057432301342 -1.9196699858
          0.23022800684 0.056116998196 -1.0788799524 0.10845699906 0.025418899953 -1.0796300173
          0.12151099741 0.027706999332 -2.0151500702 -0.2727920115 0.1985809952 -2.1935501099
          0.10053899884 0.2225189954 -1.0791499615 0.11072400212 0.22274200618 -2.232350111
          0.093406498432 0.22643999755 -2.3731300831 -0.1303140074 0.031827099621 -2.6522500515
          -0.15500099957 0.043245200068 -2.4759600163 0.15606099367 0.033234499395 -0.03736570105
          -0.061070598662 0.060541901737 -2.3890199661 -0.061451200396 0.19882400334 -0.96664398909
          -0.080649398267 0.2261839956 -2.3637499809 0.0085911396891 0.22876699269 -2.6753499508
          0.0019624899141 0.22098200023 -0.92791801691 -0.027745200321 0.22726599872 -2.4031701088
          -0.21060399711 0.17338499427 -0.63566100597 -0.21501499414 0.082789503038 -2.5613899231
          0.19660100341 0.065852001309 -0.017153499648 -0.1597969979 0.074762202799 -2.6392199993
          0.16803899407 0.04327660054 -2.4815599918 -0.2587479949 -0.018719799817 -2.098400116
          -0.26160800457 -0.018281200901 -2.3403999805 0.16981300712 -0.20489999652 -0.038105700165
          0.25890299678 -0.025740299374 -2.3404901028 0.16981300712 -0.2254049927 -0.057703100145
          -0.21095700562 0.065353900194 -0.63561397791 0.26958501339 -0.0078952899203 -2.4118900299
          0.26475098729 0.028683399782 -2.0687100887 0.26992699504 -0.018334299326 -2.3446500301
        </DataArray>
      </Points>
      <Verts>
        <DataArray type="Int32" Name="connectivity" format="ascii" RangeMin="1e+299" RangeMax="-1e+299">
        </DataArray>
        <DataArray type="Int32" Name="offsets" format="ascii" RangeMin="1e+299" RangeMax="-1e+299">
        </DataArray>
      </Verts>
      <Lines>
        <DataArray type="Int32" Name="connectivity" format="ascii" RangeMin="1e+299" RangeMax="-1e+299">
        </DataArray>
        <DataArray type="Int32" Name="offsets" format="ascii" RangeMin="1e+299" RangeMax="-1e+299">
        </DataArray>
      </Lines>
      <Strips>
        <DataArray type="Int32" Name="connectivity" format="ascii" RangeMin="1e+299" RangeMax="-1e+299">
        </DataArray>
        <DataArray type="Int32" Name="offsets" format="ascii" RangeMin="1e+299" RangeMax="-1e+299">
        </DataArray>
      </Strips>
      <Polys>
        <DataArray type="Int32" Name="connectivity" format="ascii" RangeMin="0" RangeMax="153">
          0 1 2 3 4 5
          6 7 8 9 10 11
          12 13 14 15 16 17
          18 19 20 21 22 18
          23 24 15 25 26 27
          28 29 30 16 31 32
          33 34 35 36 34 33
          33 37 0 33 0 38
          1 39 23 23 2 1
          40 41 42 43 44 45
          46 47 48 40 49 41
          50 51 52 53 52 54
          55 20 56 23 57 39
          6 58 51 59 60 20
          59 20 61 62 42 63
          34 37 64 65 66 67
          55 68 69 18 20 21
          70 71 72 6 73 74
          75 66 76 77 78 79
          80 81 82 83 84 85
          50 86 87 38 36 33
          80 88 89 90 91 92
          93 94 34 83 95 96
          97 98 99 9 100 54
          101 61 102 103 29 15
          28 104 29 105 56 106
          103 107 108 109 24 26
          110 6 111 112 51 58
          18 22 19 113 92 91
          113 43 92 114 115 116
          23 17 2 38 0 2
          83 36 84 77 117 118
          109 26 119 83 34 36
          83 76 34 120 86 61
          15 29 121 28 30 122
          28 122 123 124 2 85
          125 54 126 55 127 68
          128 107 24 128 129 130
          131 132 82 133 16 95
          97 87 134 135 136 61
          135 103 137 103 15 24
          103 24 107 12 138 139
          53 29 52 53 54 100
          110 6 8 140 69 141
          70 17 95 70 95 71
          142 85 17 23 15 17
          23 39 24 112 8 7
          140 141 143 103 61 29
          6 110 111 133 95 144
          133 17 16 113 145 146
          49 147 148 49 40 147
          149 44 43 150 143 141
          50 52 86 49 151 152
          40 45 44 40 63 45
          149 153 147 65 76 66
          40 44 147 140 143 20
        </DataArray>
        <DataArray type="Int32" Name="offsets" format="ascii" RangeMin="3" RangeMax="336">
          3 6 9 12 15 18
          21 24 27 30 33 36
          39 42 45 48 51 54
          57 60 63 66 69 72
          75 78 81 84 87 90
          93 96 99 102 105 108
          111 114 117 120 123 126
          129 132 135 138 141 144
          147 150 153 156 159 162
          165 168 171 174 177 180
          183 186 189 192 195 198
          201 204 207 210 213 216
          219 222 225 228 231 234
          237 240 243 246 249 252
          255 258 261 264 267 270
          273 276 279 282 285 288
          291 294 297 300 303 306
          309 312 315 318 321 324
          327 330 333 336
        </DataArray>
      </Polys>
    </Piece>
  </PolyData>
</VTKFile>
