<VTKFile type="PolyData" version="0.1" byte_order="LittleEndian">
  <PolyData>
    <Piece NumberOfPoints="164" NumberOfVerts="0" NumberOfLines="0" NumberOfStrips="0" NumberOfPolys="109">
      <PointData Normals="Normals">
        <DataArray type="Float32" Name="Normals" NumberOfComponents="3" format="ascii" RangeMin="0.99999942417" RangeMax="1.0000006328">
          0.29290899634 -0.012388500385 -0.95605999231 -0.13202300668 -0.99109697342 0.017228599638
          0.64004701376 -0.066255398095 -0.76547402143 0.34222000837 -0.93208301067 -0.11877000332
          0.81572002172 -0.11388800293 0.56712502241 0.17699499428 -0.97509598732 0.13364499807
          -0.08480130136 0.97086501122 -0.22411899269 -0.08287910372 0.98646098375 -0.14151500165
          0.097487598658 0.9101279974 0.40269398689 0.92872399092 0.131329 -0.34673300385
          0.30058300495 0.87050199509 -0.38971298933 0.9554309845 0.21085299551 -0.20661999285
          0.51735597849 0.80493098497 0.29056701064 0.28858301044 0.89707702398 0.33462199569
          -0.77222502232 0.63480001688 -0.026420500129 0.8995860219 -0.43468499184 0.042348001152
          0.86353302002 -0.044814299792 -0.5022969842 0.72104597092 -0.55398702621 -0.41616201401
          -0.99438101053 -0.10478699952 -0.015060300007 -0.2685559988 -0.96312999725 0.016079299152
          -0.92713302374 -0.15240499377 0.34233999252 0.25122699142 0.95829200745 -0.13624200225
          -0.11361200362 0.93622100353 -0.33254000545 0.28146401048 0.95226097107 0.11822299659
          -0.96145701408 0.27131199837 0.044611699879 -0.44155499339 0.80098897219 0.4042840004
          -0.97413498163 0.13315199316 -0.18256700039 0.11832399666 0.57124501467 -0.81220597029
          0.76707100868 0.16344299912 -0.62039399147 0.13748699427 0.68512099981 0.71533697844
          -0.63046598434 0.55511200428 0.5425530076 0.067060299218 0.99626797438 0.054349500686
          -0.73729300499 0.56921601295 -0.36385801435 0.18850800395 0.97313797474 -0.13216300309
          -0.21730099618 0.97543698549 0.036089599133 0.84570598602 0.099472999573 0.5242959857
          -0.63951599598 0.56107497215 0.52556097507 -0.25451898575 0.65259802341 0.71367800236
          -0.93436300755 0.15148200095 -0.32251799107 -0.95259600878 0.026286400855 -0.30310198665
          -0.71696698666 0.68276900053 -0.14065699279 0.99834698439 -0.056162100285 -0.012213800102
          0.93535602093 0.0077247400768 0.35362398624 -0.51860499382 -0.60989701748 -0.59922802448
          0.99337500334 0.01606320031 -0.11378599703 -0.9287250042 0.131329 -0.34673199058
          -0.95543199778 0.21085399389 -0.2066179961 -0.28126999736 0.740218997 -0.610706985
          -0.78079098463 0.62450402975 -0.018967499956 -0.77763998508 0.62831801176 -0.022193700075
          -0.25890100002 0.88074499369 -0.39655700326 -0.97718900442 0.15523600578 0.14492699504
          -0.97851699591 0.20296700299 0.036187898368 -0.19858500361 0.97990602255 0.018646299839
          -0.3068599999 0.94951301813 0.065286502242 -0.25122600794 0.95829200745 -0.13624100387
          -0.29797899723 0.9040979743 0.30629399419 -0.37566998601 0.92671400309 -0.0085186399519
          -0.73473197222 0.01352639962 -0.67822301388 -0.84580498934 0.28096199036 -0.45351299644
          0.25452101231 0.65259897709 0.7136759758 0.93436300755 0.15148200095 -0.32251900434
          0.37567201257 0.92671400309 -0.0085198599845 0.95746099949 -0.28826600313 0.013090999797
          0.97802197933 0.17208400369 -0.11772599816 0.93940097094 0.18692700565 0.28737300634
          0.097755201161 -0.99469298124 0.032097298652 0.31485599279 -0.019063500687 -0.9489480257
          0.042945101857 -0.00029033899773 0.99907702208 0.84580498934 0.28096300364 -0.45351400971
          0.9525949955 0.026285199448 -0.3031040132 0.97718900442 0.15523500741 0.14492799342
          0.29777100682 0.8699939847 -0.39299198985 -0.83568501472 0.50901901722 -0.20622800291
          0.18590199947 0.98140698671 0.047755699605 -0.63221299648 0.63967102766 0.4371829927
          -0.086556598544 0.87586897612 -0.47472301126 -0.18785500526 0.94325298071 -0.27383199334
          -0.90862500668 -0.41567099094 0.040225699544 -0.8680459857 -0.48010799289 -0.12646199763
          -0.86353302002 -0.044814001769 -0.5022969842 0.99080902338 0.013265199959 0.13461500406
          -0.68102800846 -0.094412498176 -0.72614502907 -0.64004701376 -0.066255003214 -0.76547402143
          0.26651600003 -0.96369498968 0.016147699207 0.042945101857 -0.00029033899773 0.99907702208
          0.3113310039 0.15494099259 0.93758499622 0.015295299701 0.0044730799273 -0.9998729825
          -0.24636000395 -0.96893000603 0.021950699389 0.98949700594 -0.14254699647 0.023992799222
          0.0025629899465 0.003226079978 0.99999201298 -0.075356900692 0.99316197634 -0.08916939795
          0.002507050056 0.0032521500252 0.99999201298 -0.50278502703 0.80220502615 0.32198399305
          -0.042663499713 0.36825200915 -0.92874699831 -0.19418300688 0.94251698256 -0.27194499969
          0.84103399515 0.54067701101 -0.01820169948 -0.12238200009 0.57012200356 -0.81239402294
          -0.13748599589 0.68511998653 0.71533799171 0.63046002388 0.55511301756 0.54255902767
          0.73729401827 0.5692139864 -0.36385801435 -0.21100099385 0.96753799915 -0.13909700513
          -0.82789599895 0.12090999633 0.54769402742 -0.10940700024 -0.99347501993 0.032214600593
          0.32956600189 -0.94410300255 -0.0074489000253 0.39143300056 -0.64656502008 -0.65477800369
          0.05133780092 -0.98193699121 0.1821089983 -0.60214501619 -0.14946399629 0.78427201509
          -0.18262499571 -0.97192502022 0.14835700393 0.51860100031 -0.60990399122 -0.59922498465
          -0.99376899004 -0.10861700028 0.025002500042 0.18232899904 -0.98035997152 0.075167097151
          -0.098968699574 -0.98033702374 0.17071600258 -0.0075039197691 -0.98252999783 0.18595199287
          0.014064299874 -0.64859598875 -0.76100301743 0.93433797359 0.31415599585 0.16828100383
          0.71696698666 0.68276900053 -0.14065800607 0.89534401894 -0.44396299124 0.035443298519
          0.97579598427 -0.16320100427 -0.14555700123 0.89112401009 -0.36030098796 -0.27582800388
          -0.075182199478 -0.99691098928 0.022721799091 0.9046599865 -0.42353999615 0.046952400357
          0.51055401564 0.8103479743 0.28752499819 0.51501899958 0.82274001837 -0.24052900076
          0.29797899723 0.90409898758 0.30629101396 0.34297299385 0.93108397722 0.12430399656
          -0.26920500398 -0.9629740119 0.0144520998 0.33445799351 -0.9419760108 0.028632299975
          0.63951301575 0.56107598543 0.52556300163 -0.27918899059 0.95355200768 0.11310300231
          -0.52076900005 0.12510700524 -0.84448099136 -0.01069059968 0.97878402472 0.20461499691
          -0.060133099556 0.52582198381 -0.8484659791 0.79334700108 0.6064530015 0.053058899939
          -0.28003299236 -0.01161979977 -0.95991998911 0.042945101857 -0.00029033899773 0.99907702208
          0.30932700634 -0.161650002 0.93711602688 -0.30028799176 -0.018694199622 -0.95366501808
          -0.16933700442 0.98012399673 0.10334900022 -0.17832200229 0.98389101028 0.012642299756
          -0.18449400365 -0.98246902227 -0.026767700911 -0.19240300357 -0.9763879776 -0.098221197724
          -0.9574559927 -0.28822401166 0.014346400276 -0.46658700705 0.87793397903 0.10736999661
          -0.37454900146 0.92399102449 0.077163398266 -0.082529500127 0.77237099409 -0.62978798151
          -0.28858500719 0.8970760107 0.3346259892 -0.36070001125 0.89083701372 -0.27623400092
          -0.51502001286 0.8227429986 -0.24051600695 -0.97280299664 -0.23022200167 0.02552869916
          -0.89112299681 -0.36030301452 -0.27582800388 -0.97802299261 0.17208200693 -0.11772699654
          0.39867201447 -0.9078540206 -0.12984900177 -0.25232800841 -0.64192402363 -0.72406101227
          0.017157400027 0.012762400322 -0.99977099895 0.1580709964 0.9831020236 0.092330701649
          -0.60710698366 0.14105300605 0.78200000525 -0.35819399357 -0.15955899656 0.91991198063
          -0.40811800957 0.90352201462 0.13072000444 0.083644501865 0.98057299852 0.17742599547
          -0.065467603505 0.99682897329 -0.045240901411 -0.072898901999 0.99621397257 -0.047372099012
          -0.020334700122 0.92261201143 0.3851929903 -0.35141599178 0.88837999105 -0.29544600844
        </DataArray>
      </PointData>
      <CellData>
      </CellData>
      <Points>
        <DataArray type="Float32" Name="Points" NumberOfComponents="3" format="ascii" RangeMin="0.036456250435" RangeMax="2.6978814249">
          0.092743001878 -0.082644596696 -2.6748800278 -0.028884399682 -0.2067900002 -0.017075000331
          0.16444499791 -0.2071480006 -2.6327600479 -0.073940701783 -0.22797800601 -0.9690309763
          -0.080649502575 -0.22394900024 -2.3637499809 -0.084687300026 -0.24895200133 -2.3702099323
          -0.039309900254 0.20294399559 -0.54493099451 -0.16981300712 0.19870099425 -0.50860798359
          -0.1167140007 0.02634640038 -2.388710022 0.24753299356 -0.013193700463 -2.5228199959
          0.24458999932 -0.03883510083 -2.0765299797 0.25554999709 -0.018972899765 -1.8631500006
          0.25319299102 0.020146900788 -1.810199976 0.25697800517 0.029267599806 -2.1902699471
          0.16268399358 0.046884298325 -2.191090107 0.22773300111 -0.19683900476 -0.9784219861
          0.22147600353 -0.20523999631 -2.5616500378 0.21418499947 -0.222645998 -2.5511000156
          0.10367199779 -0.20847600698 -1.6640399694 0.10854999721 -0.23157300055 -1.6646399498
          0.10826999694 -0.22280199826 -2.3198900223 0.20897400379 0.018588399515 -2.540899992
          0.15689200163 -0.055374298245 -2.6393098831 0.18175399303 -0.037523798645 -2.3792600632
          -0.25049901009 -0.073193602264 -1.6694400311 -0.24428999424 -0.047715499997 -1.726549983
          -0.25771799684 -0.071534097195 -2.4710400105 0.15296199918 0.010007999837 -2.2409799099
          0.19350799918 -0.00033841701224 -2.6146199703 0.14082199335 0.0095427399501 -1.7580699921
          0.11970499903 0.0086048599333 -2.3733699322 0.11702600121 -0.02489840053 -1.6654200554
          0.13841299713 -0.0067877001129 -2.5400800705 -0.072548501194 -0.019255800173 -2.4391200542
          -0.096055403352 -0.03168920055 -1.067800045 -0.081817001104 -0.058130398393 -2.3655800819
          -0.23242799938 -0.016010100022 -2.4635601044 -0.22886900604 -0.0094695203006 -1.7580499649
          -0.24473400414 -0.00021760900563 -2.5061600208 -0.24935300648 -0.035266000777 -2.5055100918
          -0.26920500398 -0.060673799366 -2.283780098 -0.098172098398 -0.20981700718 -1.7356200218
          -0.10182400048 -0.178403005 -2.3198900223 -0.15269899368 -0.22462999821 -2.6195499897
          -0.095331296325 -0.22325900197 -1.0677000284 -0.24108600616 -0.01319359988 -2.5228199959
          -0.2491029948 -0.018972799182 -1.8631500006 -0.2381439954 -0.03883510083 -2.0765299797
          0.15271599591 0.045031700283 -1.8110899925 0.15726800263 0.045923899859 -2.0034999847
          -0.23802599311 -0.048594098538 -2.0982298851 -0.25700700283 -0.026374600828 -1.963629961
          -0.19660100341 -0.070135898888 -0.017153300345 -0.13654600084 -0.028674500063 -2.3273100853
          -0.22258600593 -0.046668801457 -1.6676299572 -0.2025270015 0.018588500097 -2.540899992
          -0.23467899859 0.028087200597 -1.8102799654 -0.22672100365 0.0099259298295 -2.4894499779
          -0.18622800708 -0.035810898989 -2.6232800484 -0.21750299633 0.0086415996775 -2.5617599487
          0.23531599343 -0.0094697698951 -1.7580499649 0.25118100643 -0.00021774000197 -2.5061600208
          0.23316699266 0.0099258897826 -2.4894499779 0.28456100821 -0.19848500192 -2.2853500843
          0.27805501223 -0.079709798098 -2.3856298923 0.21868699789 -0.073437198997 -0.64565998316
          0.10177800059 -0.22073699534 -1.0677000284 0.085423998535 -0.20833100379 -2.6754899025
          0.21095700562 -0.069637700915 -0.63561302423 0.22394999862 0.0086413798854 -2.5617599487
          0.25580000877 -0.035266198218 -2.5055100918 0.26345399022 -0.026374800131 -1.963629961
          0.24447199702 -0.048594299704 -2.0982298851 0.098414503038 0.0058776699007 -2.4398200512
          0.10250200331 -0.029167499393 -1.067800045 0.11401599646 -0.020064899698 -2.352519989
          -0.039309900254 0.19581599534 -0.56773298979 0.12380900234 0.039395298809 -2.4180400372
          -0.19044600427 -0.1840929985 -0.016700299457 -0.26095300913 -0.21820400655 -2.3879899979
          -0.21502999961 -0.20523999631 -2.5616500378 -0.10680799931 -0.11468499899 -2.3009901047
          -0.16449299455 -0.073536202312 -2.638890028 -0.15799899399 -0.2071480006 -2.6327600479
          -0.10210400075 -0.23157300055 -1.6646399498 -0.024615500122 -0.02649769932 -0.63144797087
          -0.028167700395 -0.058403398842 -2.4057600498 0.011509999633 -0.078435301781 -2.6881101131
          -0.10902400315 -0.22714500129 -1.0694899559 -0.10809999704 -0.22177399695 -2.2796900272
          -0.039309900254 0.21294000745 -0.038472801447 -0.039309900254 0.20919600129 -0.50930202007
          -0.16981300712 0.20061600208 -0.038105599582 -0.26340100169 0.021013399586 -2.1901900768
          -0.16981300712 0.15849600732 -0.58803600073 -0.18706099689 -0.00033813901246 -2.6146199703
          -0.13984900713 0.036919899285 -1.8104900122 -0.14651499689 0.010008200072 -2.2409799099
          -0.13437500596 0.0095427501947 -1.7580699921 -0.11325799674 0.0086048198864 -2.3733699322
          -0.13196599483 -0.0067875701934 -2.5400800705 0.078995101154 -0.019255800173 -2.4391200542
          0.088263496757 -0.058130498976 -2.3655800819 0.13484799862 -0.25138899684 -2.3053100109
          0.24527099729 -0.22919100523 -2.3785700798 -5.3644200193e-09 -0.22484999895 -0.92791801691
          -0.029206400737 -0.25020301342 -2.4121100903 0.066690899432 -0.22455999255 -2.3866899014
          0.091133803129 -0.24895200133 -2.3702099323 0.15914599597 -0.22462999821 -2.6195499897
          0.11454600096 -0.22177399695 -2.2796900272 0.069422699511 -0.22430799901 -0.97868800163
          0.069532297552 -0.24968199432 -2.3947799206 0.010936600156 -0.25040999055 -2.418970108
          0.01147800032 -0.22628499568 -2.6748099327 0.25073599815 -0.04771560058 -1.726549983
          0.27565199137 -0.060673899949 -2.283780098 0.24681200087 -0.20138199627 -1.597900033
          0.27632299066 -0.20097599924 -2.3921000957 0.25797098875 -0.20305299759 -2.4766099453
          0.1192149967 -0.23000399768 -1.377679944 0.21173499525 -0.192967996 -0.64565497637
          0.25203999877 0.010420000181 -1.7807400227 0.26240900159 0.010614300147 -2.0332000256
          0.24112600088 0.028086900711 -1.8102799654 0.15412500501 0.02650360018 -2.4137599468
          0.10506500304 -0.2260210067 -1.3758900166 0.22521899641 -0.21049000323 -1.5276999474
          0.23887400329 -0.016010299325 -2.4635601044 -0.17530800402 -0.037523701787 -2.3792600632
          -0.17105199397 -0.027327099815 -2.6325800419 0.010966599919 -0.026844600216 -2.4349000454
          -0.039309900254 0.1724549979 -0.5889160037 -0.099799402058 0.026392199099 -2.4203300476
          -0.086296401918 -0.082644499838 -2.6748800278 -0.0095739299431 -0.20013199747 -0.62617200613
          -0.027745200321 -0.22500300407 -2.4031701088 -0.078977502882 -0.20833100379 -2.6754899025
          -0.065068297088 -0.033970400691 -0.96733498573 -0.10681500286 -0.024338999763 -1.3769199848
          -0.15193000436 -0.24588899314 -2.3428499699 -0.18956699967 -0.23335500062 -2.5253500938
          -0.2781150043 -0.19848500192 -2.2853500843 -0.2425159961 -0.057106800377 -1.6684299707
          -0.22917099297 -0.043403100222 -2.4355900288 -0.16981300712 0.18287399411 -0.56687402725
          -0.25053098798 0.029268000275 -2.1902699471 -0.23506100476 0.018626600504 -1.8399399519
          -0.2559620142 0.010614399798 -2.0332000256 -0.23416900635 -0.18036299944 -1.0727599859
          -0.25152400136 -0.20305199921 -2.4766099453 -0.27160900831 -0.079709596932 -2.3856298923
          -0.064572997391 -0.22412100434 -0.96723997593 -0.076201997697 -0.22586399317 -2.6609098911
          0.011514100246 -0.20873199403 -2.6897699833 0.072378501296 -0.031334098428 -0.97895097733
          0.06751280278 -0.058288998902 -2.3890199661 0.034191899002 -0.22500300407 -2.4031701088
          -0.15606099367 -0.037518300116 -0.037365600467 -0.0095739597455 -0.030749099329 -0.017084799707
          -0.039309900254 0.22968000174 -0.057956900448 -0.16981300712 0.22112099826 -0.057702898979
          0.010939399712 -0.032890699804 -2.4204199314 -0.25129801035 0.019439699128 -2.2185800076
        </DataArray>
      </Points>
      <Verts>
        <DataArray type="Int32" Name="connectivity" format="ascii" RangeMin="1e+299" RangeMax="-1e+299">
        </DataArray>
        <DataArray type="Int32" Name="offsets" format="ascii" RangeMin="1e+299" RangeMax="-1e+299">
        </DataArray>
      </Verts>
      <Lines>
        <DataArray type="Int32" Name="connectivity" format="ascii" RangeMin="1e+299" RangeMax="-1e+299">
        </DataArray>
        <DataArray type="Int32" Name="offsets" format="ascii" RangeMin="1e+299" RangeMax="-1e+299">
        </DataArray>
      </Lines>
      <Strips>
        <DataArray type="Int32" Name="connectivity" format="ascii" RangeMin="1e+299" RangeMax="-1e+299">
        </DataArray>
        <DataArray type="Int32" Name="offsets" format="ascii" RangeMin="1e+299" RangeMax="-1e+299">
        </DataArray>
      </Strips>
      <Polys>
        <DataArray type="Int32" Name="connectivity" format="ascii" RangeMin="0" RangeMax="163">
          0 1 2 3 4 5
          6 7 8 9 10 11
          12 13 14 15 16 17
          18 19 20 21 22 23
          24 25 26 27 28 29
          30 31 32 33 34 35
          36 37 38 39 40 25
          41 42 43 5 4 44
          45 46 47 6 48 49
          39 50 51 52 53 54
          55 56 57 37 58 59
          60 61 62 63 64 65
          66 18 67 68 69 23
          70 71 72 73 74 75
          30 32 29 76 77 48
          78 79 80 81 0 82
          78 83 42 44 41 84
          85 86 87 43 88 89
          90 91 49 7 92 93
          94 95 96 97 98 95
          99 98 100 101 102 74
          101 74 73 74 87 0
          103 104 2 105 106 107
          108 66 67 19 109 110
          111 112 67 105 113 114
          74 0 22 70 115 116
          117 118 119 120 103 109
          121 63 65 122 21 123
          124 125 28 126 108 103
          127 17 104 22 28 27
          128 61 60 55 129 130
          76 131 77 132 133 86
          78 42 81 1 0 81
          134 86 35 135 136 106
          1 42 137 138 35 86
          82 134 139 140 141 142
          143 54 144 145 93 146
          147 148 57 34 134 35
          149 142 150 78 52 151
          78 151 142 44 4 42
          37 57 38 134 87 86
          152 137 153 152 106 137
          111 67 154 155 102 101
          155 101 156 105 114 157
          78 82 158 78 81 82
          65 23 0 121 65 0
          15 17 16 67 1 154
          1 137 106 159 131 85
          132 86 85 160 14 13
          7 6 92 161 91 90
          159 87 162 145 163 147
          6 49 91 161 93 92
          94 56 95 6 91 92
          7 93 145 76 85 131
          121 0 17
        </DataArray>
        <DataArray type="Int32" Name="offsets" format="ascii" RangeMin="3" RangeMax="327">
          3 6 9 12 15 18
          21 24 27 30 33 36
          39 42 45 48 51 54
          57 60 63 66 69 72
          75 78 81 84 87 90
          93 96 99 102 105 108
          111 114 117 120 123 126
          129 132 135 138 141 144
          147 150 153 156 159 162
          165 168 171 174 177 180
          183 186 189 192 195 198
          201 204 207 210 213 216
          219 222 225 228 231 234
          237 240 243 246 249 252
          255 258 261 264 267 270
          273 276 279 282 285 288
          291 294 297 300 303 306
          309 312 315 318 321 324
          327
        </DataArray>
      </Polys>
    </Piece>
  </PolyData>
</VTKFile>
