<VTKFile type="PolyData" version="0.1" byte_order="LittleEndian">
  <PolyData>
    <Piece NumberOfPoints="85" NumberOfVerts="0" NumberOfLines="0" NumberOfStrips="0" NumberOfPolys="150">
      <PointData Normals="Normals">
        <DataArray type="Float32" Name="Normals" NumberOfComponents="3" format="ascii" RangeMin="0.99999942417" RangeMax="1.0000006328">
          0.95241898298 0.21811999381 -0.21288999915 0.41911199689 0.90773999691 -0.01879609935
          0.96075797081 0.27241200209 -0.052306801081 0.97284197807 0.2219530046 0.065697796643
          0.99852597713 0.039599400014 0.037116799504 -0.060133099556 0.52582198381 -0.8484659791
          0.83568501472 0.50901699066 -0.20623099804 0.086973503232 0.99267500639 -0.083856798708
          0.29290899634 -0.012388500385 -0.95605999231 0.64004701376 -0.066255398095 -0.76547402143
          0.68102800846 -0.094411797822 -0.72614502907 0.92872399092 0.131329 -0.34673300385
          0.28146401048 0.95226097107 0.11822299659 0.074265599251 0.96836000681 -0.23825000226
          0.28242900968 0.94643700123 0.15649600327 -0.36054500937 0.15347400308 0.92002898455
          0.015295299701 0.0044730799273 -0.9998729825 -0.83568501472 0.50901901722 -0.20622800291
          -0.075508199632 0.99311602116 -0.089551597834 -0.56518000364 0.79609197378 0.21635399759
          0.95182102919 -0.30508300662 0.030996900052 0.99856299162 -0.053392399102 -0.0045219599269
          0.656036973 -0.75462400913 0.012549100444 0.30932700634 -0.161650002 0.93711602688
          0.017157400027 0.012762400322 -0.99977099895 0.25264701247 -0.96604901552 -0.054032899439
          0.94666898251 -0.31788501143 -0.052599601448 0.78529298306 0.1524489969 -0.60006201267
          0.31753599644 0.85153800249 0.41719698906 -0.92713302374 -0.15240499377 0.34233999252
          -0.63221299648 0.63967102766 0.4371829927 -0.070641599596 0.9644190073 -0.25476700068
          -0.075356900692 0.99316197634 -0.08916939795 -0.8001319766 0.55975097418 -0.21556200087
          0.40783199668 0.86692899466 -0.28654301167 -0.60710698366 0.14105300605 0.78200000525
          -0.35819399357 -0.15955899656 0.91991198063 -0.020114699379 -0.99643301964 0.081959798932
          -0.098968699574 -0.98033702374 0.17071600258 -0.26160898805 -0.96177500486 0.080931000412
          0.9009630084 -0.430768013 0.052007600665 -0.99080300331 -0.12942300737 0.039473600686
          -0.97851699591 0.20296700299 0.036187898368 -0.99872297049 0.036455001682 0.034976501018
          0.11119800061 -0.97963798046 0.1671680063 0.017341399565 -0.99648201466 0.081995598972
          -0.01069059968 0.97878402472 0.20461499691 -0.14196200669 0.72829699516 -0.67039501667
          0.56518101692 0.79609197378 0.21635299921 0.63220697641 0.63967400789 0.43718600273
          0.08642180264 0.95491099358 -0.28403499722 -0.097473397851 0.91013002396 0.40269300342
          0.84580498934 0.28096300364 -0.45351400971 0.87370699644 0.40904399753 0.26328599453
          -0.94244998693 0.33308601379 0.029007300735 0.3113310039 0.15494099259 0.93758499622
          0.60710799694 0.14105400443 0.78200000525 0.99080902338 0.013265199959 0.13461500406
          0.99954998493 -0.029944300652 0.0016614199849 -0.31753599644 0.85153698921 0.41719898582
          -0.49494001269 0.8685169816 -0.026693200693 0.93535602093 0.0077247400768 0.35362398624
          -0.28242599964 0.94643801451 0.15649299324 -0.68102800846 -0.094412498176 -0.72614502907
          0.097487598658 0.9101279974 0.40269398689 -0.78529399633 0.15245099366 -0.60006099939
          -0.9287250042 0.131329 -0.34673199058 -0.19240300357 -0.9763879776 -0.098221197724
          -0.64004701376 -0.066255003214 -0.76547402143 -0.0075039197691 -0.98252999783 0.18595199287
          -0.8993819952 -0.43667900562 0.020574100316 -0.94666898251 -0.31788501143 -0.052600599825
          -0.31644698977 -0.94556599855 -0.075936198235 -0.18449400365 -0.98246902227 -0.026767700911
          -0.99917501211 -0.037528198212 0.015538199805 0.26160699129 -0.96177500486 0.080931298435
          -0.84580498934 0.28096199036 -0.45351299644 -0.35141599178 0.88837999105 -0.29544600844
          0.80012702942 0.55975699425 -0.215564996 -0.98484200239 0.16236799955 -0.061015501618
          -0.96075797081 0.27241000533 -0.052306998521 -0.27918899059 0.95355200768 0.11310300231
          -0.074264898896 0.96836102009 -0.23824800551 -0.042663499713 0.36825200915 -0.92874699831
          0.002507050056 0.0032521500252 0.99999201298
        </DataArray>
      </PointData>
      <CellData>
      </CellData>
      <Points>
        <DataArray type="Float32" Name="Points" NumberOfComponents="3" format="ascii" RangeMin="0.19101241987" RangeMax="2.6978814249">
          0.2730819881 -0.019667999819 -2.241339922 0.25778698921 -0.051053799689 -2.3234798908
          0.28360199928 -0.078370399773 -2.3212800026 0.2350910008 -0.074359297752 -0.9788749814
          0.26203298569 -0.099719800055 -1.7413400412 -0.039309900254 0.1724549979 -0.5889160037
          -0.091967903078 0.0058777900413 -2.4398200512 -0.035354800522 -0.027665900066 -2.4492900372
          0.092743001878 -0.082644596696 -2.6748800278 0.16444499791 -0.2071480006 -2.6327600479
          0.17093899846 -0.073536202312 -2.638890028 0.24753299356 -0.013193700463 -2.5228199959
          0.18175399303 -0.037523798645 -2.3792600632 0.18090300262 0.0098267002031 -2.5883901119
          0.14862400293 -0.026313800365 -2.3702399731 0.034614298493 -0.058403398842 -2.4057600498
          0.011509999633 -0.078435301781 -2.6881101131 0.098414503038 0.0058776699007 -2.4398200512
          0.041801501065 -0.027665900066 -2.4492900372 0.077817797661 -0.020253399387 -2.4107100964
          0.24853500724 -0.18209500611 -1.3809499741 0.2875199914 -0.17093099654 -2.285670042
          -0.0095739299431 -0.19000299275 -0.017115699127 -0.027745200321 -0.22500300407 -2.4031701088
          0.011514100246 -0.20873199403 -2.6897699833 0.22829799354 -0.23121899366 -2.4515099525
          0.283197999 -0.19935399294 -2.3232901096 0.20292499661 -0.013381999917 -2.6064100266
          0.23164400458 -0.03754099831 -1.7258499861 0.10826999694 -0.22280199826 -2.3198900223
          0.11401599646 -0.020064899698 -2.352519989 0.12922799587 -0.047439601272 -2.6075201035
          -0.039309900254 0.20919600129 -0.50930202007 0.15459600091 0.031401999295 -2.2141499519
          0.25774499774 0.019439600408 -2.2185800076 0.06751280278 -0.058288998902 -2.3890199661
          0.034191899002 -0.22500300407 -2.4031701088 0.040076501667 -0.25540798903 -2.4389300346
          0.069532297552 -0.24968199432 -2.3947799206 0.11864999682 -0.24697700143 -2.3020699024
          0.22478100657 -0.19655400515 -0.92937999964 -0.19660100341 -0.16994200647 -0.017153300345
          -0.19660100341 -0.070135898888 -0.017153300345 -0.2555859983 -0.099719598889 -1.7413400412
          -0.063085898757 -0.24968199432 -2.3947799206 -0.033629998565 -0.25540798903 -2.4389300346
          0.010966599919 -0.026844600216 -2.4349000454 -0.10534100235 -0.067647300661 -2.6584498882
          -0.071370996535 -0.020253200084 -2.4107100964 -0.10756999999 -0.020064700395 -2.352519989
          -0.12278100103 -0.047439400107 -2.6075201035 0.12316100299 0.026346299797 -2.388710022
          0.22394999862 0.0086413798854 -2.5617599487 0.21173499525 -0.058587800711 -0.64565998316
          -0.23416900635 -0.072343699634 -1.0727599859 -0.028167700395 -0.058403398842 -2.4057600498
          -0.061066199094 -0.058288998902 -2.3890199661 -0.10680799931 -0.11468499899 -2.3009901047
          -0.098618797958 -0.2260210067 -1.3758900166 -0.22519700229 -0.037540800869 -1.7258499861
          -0.2513409853 -0.051053598523 -2.3234798908 -0.10182400048 -0.178403005 -2.3198900223
          -0.14217700064 -0.026313699782 -2.3702399731 -0.16449299455 -0.073536202312 -2.638890028
          -0.1167140007 0.02634640038 -2.388710022 -0.1964789927 -0.013381900266 -2.6064100266
          -0.24108600616 -0.01319359988 -2.5228199959 -0.18956699967 -0.23335500062 -2.5253500938
          -0.15799899399 -0.2071480006 -2.6327600479 0.010936600156 -0.25040999055 -2.418970108
          -0.22670599818 -0.19567200541 -1.0717899799 -0.27675199509 -0.19935399294 -2.3232901096
          -0.22185200453 -0.23121899366 -2.4515099525 -0.15193000436 -0.24588899314 -2.3428499699
          -0.28107398748 -0.17093099654 -2.285670042 -0.11220300198 -0.24697700143 -2.3020699024
          -0.21750299633 0.0086415996775 -2.5617599487 -0.25129801035 0.019439699128 -2.2185800076
          -0.14814899862 0.03140220046 -2.2141499519 -0.27013599873 -0.027100900188 -2.2292299271
          -0.27715501189 -0.078370198607 -2.3212800026 -0.17530800402 -0.037523701787 -2.3792600632
          -0.17445699871 0.0098268901929 -2.5883901119 -0.16981300712 0.15849600732 -0.58803600073
          -0.16981300712 0.20061600208 -0.038105599582
        </DataArray>
      </Points>
      <Verts>
        <DataArray type="Int32" Name="connectivity" format="ascii" RangeMin="1e+299" RangeMax="-1e+299">
        </DataArray>
        <DataArray type="Int32" Name="offsets" format="ascii" RangeMin="1e+299" RangeMax="-1e+299">
        </DataArray>
      </Verts>
      <Lines>
        <DataArray type="Int32" Name="connectivity" format="ascii" RangeMin="1e+299" RangeMax="-1e+299">
        </DataArray>
        <DataArray type="Int32" Name="offsets" format="ascii" RangeMin="1e+299" RangeMax="-1e+299">
        </DataArray>
      </Lines>
      <Strips>
        <DataArray type="Int32" Name="connectivity" format="ascii" RangeMin="1e+299" RangeMax="-1e+299">
        </DataArray>
        <DataArray type="Int32" Name="offsets" format="ascii" RangeMin="1e+299" RangeMax="-1e+299">
        </DataArray>
      </Strips>
      <Polys>
        <DataArray type="Int32" Name="connectivity" format="ascii" RangeMin="0" RangeMax="84">
          0 1 2 3 4 2
          5 6 7 8 9 10
          0 11 1 12 13 14
          15 16 8 17 18 19
          4 20 21 22 23 24
          20 25 26 27 28 11
          8 29 9 30 31 14
          14 31 10 3 2 1
          32 33 34 8 10 31
          30 35 31 36 37 38
          29 38 39 39 25 9
          40 10 9 29 39 9
          41 42 43 23 44 45
          17 19 30 15 18 46
          47 48 49 19 35 30
          47 49 50 15 46 16
          51 30 14 4 21 2
          40 3 10 13 33 14
          5 17 51 52 27 11
          11 28 1 0 34 11
          53 3 28 52 13 27
          52 34 33 12 27 13
          42 54 43 51 14 33
          55 56 57 23 58 44
          54 59 60 47 56 48
          22 61 23 62 63 50
          64 62 49 65 66 59
          55 7 56 49 62 50
          41 67 68 23 45 69
          70 71 72 73 67 72
          70 74 71 45 44 75
          73 75 68 45 37 69
          58 68 75 7 48 56
          76 77 66 6 64 49
          64 78 62 79 80 60
          81 65 59 57 47 63
          58 75 44 79 60 66
          5 51 33 66 60 59
          82 62 78 41 63 42
          81 62 82 76 82 78
          83 77 76 5 46 17
          83 78 64 52 11 34
          52 33 13 18 35 19
          5 64 6 37 39 38
          36 24 69 22 24 8
          36 38 29 8 24 36
          36 69 37 21 20 26
          12 14 10 53 28 27
          17 30 51 17 46 18
          76 66 65 76 65 82
          55 16 46 5 83 64
          23 69 24 61 68 58
          41 70 67 43 80 74
          47 50 63 41 61 57
          81 63 62 81 82 65
          6 49 48 6 48 7
          8 31 35 8 36 29
          15 8 35 15 35 18
          3 1 28 40 20 3
          41 68 61 57 56 47
          61 58 23 22 55 57
          22 16 55 55 46 7
          67 70 72 73 68 67
          73 45 75 54 60 80
          41 43 74 42 81 59
          54 80 43 79 66 77
          53 27 12 3 20 4
          40 9 25 40 25 20
          42 63 81 42 59 54
          41 57 63 41 74 70
          83 84 77 5 84 83
          53 12 10 53 10 3
          22 8 16 22 57 61
          83 76 78 5 32 84
          5 7 46 5 33 32
        </DataArray>
        <DataArray type="Int32" Name="offsets" format="ascii" RangeMin="3" RangeMax="450">
          3 6 9 12 15 18
          21 24 27 30 33 36
          39 42 45 48 51 54
          57 60 63 66 69 72
          75 78 81 84 87 90
          93 96 99 102 105 108
          111 114 117 120 123 126
          129 132 135 138 141 144
          147 150 153 156 159 162
          165 168 171 174 177 180
          183 186 189 192 195 198
          201 204 207 210 213 216
          219 222 225 228 231 234
          237 240 243 246 249 252
          255 258 261 264 267 270
          273 276 279 282 285 288
          291 294 297 300 303 306
          309 312 315 318 321 324
          327 330 333 336 339 342
          345 348 351 354 357 360
          363 366 369 372 375 378
          381 384 387 390 393 396
          399 402 405 408 411 414
          417 420 423 426 429 432
          435 438 441 444 447 450
        </DataArray>
      </Polys>
    </Piece>
  </PolyData>
</VTKFile>
