<?xml version="1.0"?>
<VTKFile type="PolyData" version="0.1" byte_order="LittleEndian" compressor="vtkZLibDataCompressor">
  <PolyData>
    <Piece NumberOfPoints="1010" NumberOfVerts="0" NumberOfLines="0" NumberOfStrips="394" NumberOfPolys="0">
      <PointData Normals="Normals">
        <DataArray type="Float32" Name="Normals" NumberOfComponents="3" format="ascii" RangeMin="0.99999926577" RangeMax="1.0000007658">
          -0.98446398973 -0.16790899634 0.051360398531 -0.95264697075 -0.12620000541 -0.2766520083
          -0.67874902487 -0.11190100014 -0.72579497099 0.66246598959 -0.1346269995 -0.73689502478
          0.96397799253 -0.09048730135 -0.25011599064 0.98906302452 -0.13147599995 0.066852502525
          -0.30633100867 -0.72389900684 0.61816799641 -0.13210199773 -0.96342802048 -0.23314300179
          -0.54027599096 -0.8408960104 0.031546998769 0.54465597868 -0.83835601807 0.0225550998
          0.1397099942 -0.96187597513 -0.2351090014 0.29652199149 -0.72329497337 0.62363398075
          -0.096363000572 -0.99423098564 0.047097198665 0.0084017300978 -0.98142302036 0.19167099893
          0.10282599926 -0.99356502295 0.047500301152 0.96668601036 -0.10200800002 0.23476199806
          0.60729300976 -0.14125500619 0.78181999922 0.046483401209 -0.15874099731 0.98622500896
          -0.59324002266 -0.18527400494 0.78341501951 -0.97370797396 -0.13008600473 0.18700300157
          -0.93621402979 0.26658600569 -0.22898599505 -0.57762598991 0.40119099617 -0.71091097593
          -0.011333200149 0.060727998614 -0.99809002876 0.61894100904 0.3534129858 -0.70143502951
          0.91415697336 0.35168400407 -0.20158199966 -0.26427400112 0.96405297518 -0.027589200065
          0.13199800253 0.97916299105 -0.15432600677 0.26913198829 0.96253198385 -0.033178001642
          0.23420499265 0.96836298704 0.086148299277 0.11123500019 0.97956502438 0.16756699979
          0.0080744698644 0.97929000854 0.20230199397 -0.10968499631 0.97980099916 0.16721199453
          -0.24112400413 0.96749198437 0.076280303299 0.57172399759 -0.77121001482 0.27994099259
          0.21668499708 -0.97018098831 -0.1086160019 0.1317819953 -0.97824001312 0.16024999321
          0.0096686696634 -0.97867697477 0.2051769942 -0.12959599495 -0.97860300541 0.15981400013
          -0.21639800072 -0.96868097782 -0.1217719987 -0.59030902386 -0.7637630105 0.26115199924
          -0.96840798855 -0.23464900255 -0.084414497018 0.97096198797 -0.22469699383 -0.082129001617
          -0.29833200574 -0.87022697926 -0.39204999804 0.31087100506 -0.86735600233 -0.38865500689
          0.58696597815 -0.75957000256 -0.28022199869 -0.57844501734 -0.76478302479 -0.28374099731
          -0.96890097857 -0.19406099617 0.15353100002 0.9684690237 -0.19571599364 0.15415300429
          -0.25964900851 -0.69246399403 0.67310899496 0.34873399138 -0.84732800722 0.40052500367
          0.56263899803 -0.78281801939 0.26576900482 -0.57173901796 -0.77793002129 0.26065298915
          -0.96939098835 -0.22983799875 -0.086345098913 0.97003597021 -0.22727699578 -0.08587680012
          -0.30256599188 -0.87080997229 -0.38748401403 0.31542098522 -0.86672598124 -0.38638699055
          0.59728902578 -0.75633502007 -0.2668389976 -0.5891289711 -0.76151198149 -0.27023300529
          -0.97161799669 -0.19183300436 0.13841299713 0.9714589715 -0.19211299717 0.13914300501
          -0.3615719974 -0.85350900888 0.37521600723 0.35612499714 -0.85560500622 0.37565198541
          0.57180398703 -0.78099197149 0.25118198991 -0.58037501574 -0.77617698908 0.24640199542
          -0.97687798738 -0.200868994 -0.073216103017 0.9773799777 -0.19854800403 -0.072847597301
          -0.30864301324 -0.87815600634 -0.36548700929 0.3212479949 -0.87404900789 -0.36447000504
          0.59852200747 -0.75839298964 -0.25809299946 -0.59043699503 -0.7635679841 -0.26143598557
          -0.96693998575 -0.21237899363 0.14114800096 0.9667519927 -0.2126930058 0.1419569999
          -0.36690101027 -0.86022901535 0.35410499573 0.36182698607 -0.86220997572 0.35450598598
          0.57142698765 -0.78259497881 0.24701499939 -0.58007597923 -0.77769297361 0.24229200184
          -0.95293200016 -0.30223199725 0.024023899809 0.97755300999 -0.20901100338 0.026535000652
          0.13747900724 -0.99050402641 0.0012631099671 -0.95886600018 0.28217101097 0.030898399651
          0.25195100904 0.96748000383 0.022450700402 0.27271899581 0.9619820118 0.014625299722
          -0.99765002728 -0.06195820123 -0.02924340032 -0.9965839982 -0.046268898994 -0.068411298096
          -0.36988699436 -0.15995499492 -0.91520398855 0.36720898747 -0.16737499833 -0.91495501995
          0.99821102619 -0.052638698369 -0.028355199844 0.99705398083 -0.074226900935 0.019339399412
          -0.39496999979 -0.85213702917 0.34330898523 -0.2360740006 -0.9525449872 -0.19216400385
          -0.26243001223 -0.94558000565 -0.19237500429 0.27341398597 -0.94117999077 -0.19855700433
          0.29994899035 -0.93933600187 -0.16636699438 0.39231398702 -0.84412801266 0.36542901397
          -0.32986500859 -0.87692201138 0.34956800938 0.013417299837 -0.93182301521 0.36266499758
          0.35389900208 -0.86867302656 0.34664401412 0.71428602934 -0.65035200119 0.25853198767
          0.77862197161 -0.61599302292 -0.1195840016 -0.77181601524 -0.61572098732 -0.15870499611
          -0.7338719964 -0.64042598009 0.22646400332 -0.4103949964 -0.86602598429 -0.28561198711
          0.36200100183 -0.88456898928 -0.29409700632 0.80287498236 -0.55744200945 -0.21130500734
          -0.80130898952 -0.56043899059 -0.20931300521 -0.40154498816 -0.8557369709 0.32630699873
          0.402312994 -0.85579097271 0.32521700859 0.80237299204 -0.57149201632 0.17203000188
          -0.80355900526 -0.5698390007 0.1719789952 -0.35963100195 -0.89292901754 -0.27081799507
          0.36774998903 -0.88966500759 -0.27065700293 0.81118100882 -0.55224502087 -0.19238099456
          -0.80983299017 -0.55489999056 -0.19041399658 -0.40946599841 -0.86232501268 0.29788300395
          0.41058799624 -0.86214798689 0.2968479991 0.8096050024 -0.56486999989 0.15956799686
          -0.81060802937 -0.56341600418 0.15961499512 -0.41963499784 -0.8673620224 -0.26756200194
          0.37031200528 -0.88725697994 -0.27503600717 0.81307500601 -0.55039602518 -0.18966600299
          -0.81169599295 -0.55308997631 -0.18772700429 -0.41246199608 -0.86102300882 0.29751199484
          0.41351398826 -0.86088699102 0.29644399881 0.81014502048 -0.56313401461 0.16292800009
          -0.81129598618 -0.56148898602 0.1628780067 -0.99890601635 0.0069418898784 -0.046237599105
          -0.81525999308 -0.36399298906 -0.45039901137 -0.2646690011 -0.14662900567 -0.95312702656
          0.253143996 -0.15106500685 -0.95556098223 0.81484502554 -0.36414799094 -0.45102599263
          0.9996650219 -0.025862000883 -1.8671400539e-05 -0.14144900441 -0.9862729907 -0.085188597441
          -0.10249800235 -0.99470299482 0.0077286101878 0.10951600224 -0.99396198988 0.0068203001283
          0.14768999815 -0.98517298698 -0.087304897606 -0.11431600153 -0.99074697495 -0.073161900043
          0.046402700245 -0.99522000551 -0.085924901068 -0.0028415899724 -0.99796700478 0.06366609782
          0.0084331901744 -0.99792200327 0.063883699477 0.043138798326 -0.95873600245 -0.28100499511
          -0.043744999915 -0.99494999647 -0.090332202613 -0.29512700438 0.035735301673 -0.95478898287
          0.28399500251 0.036040801555 -0.95814800262 -0.88125401735 0.46811199188 -0.065285898745
          -0.73454898596 0.55043101311 -0.396818012 -0.25734099746 0.64254397154 -0.72174298763
          0.24999900162 0.64446598291 -0.72260898352 0.73649197817 0.5501459837 -0.39359799027
          0.88922697306 0.45585098863 -0.03841599822 0.069528102875 0.99684000015 0.038426801562
          0.039559200406 0.99816900492 0.045750699937 0.018432000652 0.99580699205 0.089597798884
          -0.009397059679 0.99994200468 0.0052671898156 -0.10293900222 0.99404197931 0.035825200379
          -0.043594498187 0.99767398834 0.052410900593 0.98996502161 0.088031701744 0.11054000258
          0.85518300533 0.12762899697 0.50236701965 0.32242500782 0.16139900684 0.9327340126
          -0.23182499409 0.18884299695 0.95425099134 -0.9883390069 0.13424099982 0.071867696941
          -0.86621600389 0.17197099328 0.46914300323 0.97789502144 -0.18367099762 0.099926397204
          0.84296697378 -0.2252690047 0.48852899671 0.31548199058 -0.28960600495 0.90365898609
          -0.25113800168 -0.29333499074 0.92243397236 -0.98119801283 -0.18237799406 0.063162699342
          -0.86055898666 -0.22252100706 0.45817300677 -0.99872398376 -0.044866200536 0.023169899359
          -0.41306999326 -0.83103597164 -0.37249401212 0.92211097479 -0.38643100858 0.019553799182
          0.077397197485 -0.99371898174 0.080817699432 0.18964099884 -0.89500302076 -0.40374100208
          -0.99897801876 0.04460439831 -0.007272540126 -0.33113700151 0.94319200516 0.0271333009
          0.06489560008 0.99735701084 0.032664000988 0.99385201931 0.10763700306 0.025944199413
          0.81745499372 -0.57592397928 0.0088785802945 -0.82010197639 -0.57221400738 -0.00193880999
          -0.50650799274 -0.80212897062 0.31628999114 0.50876402855 -0.80156701803 0.31408500671
          0.77463597059 -0.63192397356 -0.024732200429 0.1697639972 -0.9305639863 0.3243919909
          0.91229999065 -0.40893501043 -0.021918799728 -0.91194397211 -0.40975901484 -0.021329799667
          -0.99769997597 -0.05127460137 0.044327799231 0.99821299314 -0.040045000613 0.044345300645
          -0.41845199466 -0.83009397984 -0.3685669899 0.91532498598 -0.40098699927 0.037287201732
          0.16012600064 -0.98709601164 -0.00037610600702 0.19325600564 -0.89593201876 -0.39994698763
          0.82830798626 -0.56002402306 -0.016713500023 -0.8284239769 -0.55984097719 -0.017059899867
          -0.5159149766 -0.80685299635 0.28778401017 0.5184969902 -0.80594199896 0.28568801284
          0.7794200182 -0.62615597248 -0.020838100463 0.17402499914 -0.93866801262 0.29768800735
          0.90084600449 -0.43375098705 -0.018338799477 -0.90044498444 -0.43460801244 -0.017735499889
          -0.99813002348 -0.048341698945 0.037403400987 0.99812799692 -0.048554699868 0.037197299302
          -0.4263420105 -0.8351380229 -0.34753000736 0.91684901714 -0.3981359899 0.02958310023
          0.15959399939 -0.98718100786 -0.0018118099542 0.19706700742 -0.90493702888 -0.37716600299
          0.83013397455 -0.55738198757 -0.014260300435 -0.83028101921 -0.55715399981 -0.014567400329
          -0.51950699091 -0.80502402782 0.28644299507 0.52204102278 -0.8041459918 0.28429299593
          0.78208100796 -0.62291699648 -0.017984500155 0.17535699904 -0.93792498112 0.29924300313
          0.91569501162 -0.40158200264 -0.015346799977 -0.91540598869 -0.40226098895 -0.014795199968
          -0.90545600653 -0.41581299901 0.085145398974 0.46359699965 -0.86766499281 0.17954400182
          -0.044701900333 -0.9823179841 0.18180400133 0.06204289943 -0.9880130291 0.14135199785
          0.83732700348 -0.54652500153 0.013971500099 -0.80293601751 -0.59598600864 0.0097404401749
          -0.99785101414 -0.060082100332 0.026139700785 -0.89886498451 -0.43774101138 0.020597599447
          0.47479298711 -0.88006299734 0.0077685802244 -0.89895701408 0.43706399202 0.029173199087
          0.8995450139 0.43587499857 0.028854699805 -0.021610600874 0.99966400862 0.01429739967
          0.98766899109 0.091269902885 -0.12720300257 -0.19107599556 -0.98117101192 0.028173999861
          -0.97346997261 -0.16907599568 -0.15417400002 -0.99496299028 -0.078983597457 -0.061719100922
          -0.27522999048 -0.086136102676 -0.95751202106 0.26314100623 -0.087345600128 -0.96079498529
          0.9972640276 -0.070186197758 -0.02322060056 -0.97194302082 -0.095511101186 -0.21495099366
          -0.36887601018 -0.62196397781 0.69071799517 -0.7462990284 -0.66159498692 0.073000900447
          0.58317697048 -0.18232999742 -0.79161900282 -0.054593201727 -0.76715397835 -0.63913601637
          0.98484200239 -0.1158490032 0.1290909946 0.024462800473 -0.80155700445 0.59741801023
          0.019983800128 -0.79948502779 0.60035401583 0.85766798258 -0.5085939765 0.075748898089
          0.56977802515 -0.64541101456 0.50872200727 0.11113599688 -0.61988198757 0.77678501606
          -0.86181801558 -0.5057309866 0.038804098964 -0.95273500681 -0.2164169997 -0.2132139951
          0.30634099245 -0.55433100462 -0.77386802435 -0.12003099918 -0.57469499111 -0.80951702595
          -0.66567897797 -0.57955998182 -0.47008699179 -0.30553299189 -0.53754800558 0.78593301773
          0.93648898602 -0.20027500391 0.287887007 0.64807897806 -0.60621297359 0.4609760046
          0.1176609993 -0.58929002285 0.799308002 -0.95581901073 -0.21025499701 -0.20543199778
          0.31041300297 -0.56510698795 -0.76439398527 -0.12149400264 -0.5902299881 -0.79803997278
          -0.68683999777 -0.57666397095 -0.44239100814 -0.31541201472 -0.55313700438 0.77107399702
          0.94392299652 -0.19671599567 0.2651630044 0.66862499714 -0.60353797674 0.43437600136
          0.12378799915 -0.60564297438 0.78604900837 -0.9556120038 -0.2099429965 -0.20671199262
          0.32153698802 -0.56962698698 -0.75639802217 -0.12769299746 -0.5954579711 -0.7931740284
          -0.68820500374 -0.57950401306 -0.43651899695 -0.3261089921 -0.55864399672 0.76260697842
          0.94648599625 -0.19731199741 0.25540700555 0.6668689847 -0.60597801208 0.43367800117
          0.12415400147 -0.6138330102 0.77961200476 -0.99657702446 -0.027127500623 -0.078093603253
          -0.89839798212 0.0095693897456 -0.43907800317 0.84666901827 0.012015099637 -0.5319839716
          0.99809098244 -0.046844400465 -0.04026030004 -0.99833202362 -0.029832700267 -0.049437399954
          -0.99776399136 -0.00071976799518 -0.066837899387 -0.37414199114 -0.92713600397 -0.020885199308
          -0.99925798178 -0.031932901591 -0.021517399698 -0.85075497627 -0.17565099895 -0.49534100294
          -0.24116399884 -0.95997202396 -0.14245800674 -0.86578500271 -0.18206100166 -0.46612301469
          -0.0120037999 -0.079404100776 -0.9967700243 -0.13987499475 -0.96080601215 -0.23934499919
          -0.3582290113 -0.10346099734 -0.92788302898 0.35618498921 -0.1122630015 -0.92764699459
          0.14263600111 -0.95900499821 -0.24487499893 0.87343901396 -0.16238099337 -0.45906099677
          0.24446700513 -0.95867300034 -0.14553900063 0.8466719985 -0.20091000199 -0.4927290082
          0.99890202284 -0.03989470005 0.024540999904 0.37874999642 -0.92548602819 -0.0050083701499
          0.99976700544 0.0011992199579 -0.021575000137 -0.18807899952 -0.97959399223 0.070869602263
          -0.20958200097 -0.87967801094 0.4268989861 -0.54211699963 -0.8166000247 0.19817399979
          -0.087852202356 -0.93794101477 0.33548301458 -0.19711099565 -0.97848200798 0.060995899141
          0.21092799306 -0.975695014 0.059407301247 0.11336699873 -0.93445497751 0.33755400777
          0.20568299294 -0.8717520237 0.44468298554 0.14692500234 -0.98911601305 -0.0078691802919
          0.03322520107 -0.97355097532 -0.22604100406 0.55526697636 -0.80955398083 0.19052900374
          0.011986900121 -0.96364599466 -0.26691499352 0.76347601414 -0.64321601391 0.058109901845
          -0.1994599998 -0.85597199202 0.47699901462 0.04111289978 -0.99603199959 -0.078926198184
          0.12979200482 -0.97611600161 -0.17421400547 -0.0085556097329 -0.97798097134 0.20851999521
          0.061690099537 -0.98346501589 0.17026899755 0.025664800778 -0.97741800547 0.20974999666
          -0.049375001341 -0.98387902975 0.17188200355 0.19247800112 -0.8469030261 0.49568998814
          -0.77061599493 -0.63688200712 0.023088099435 0.020428499207 -0.96446597576 -0.26341599226
          -0.125 -0.97524398565 -0.18240900338 -0.041735801846 -0.99569600821 -0.082751899958
          0.9900739789 -0.097296498716 0.10142300278 0.85819900036 -0.11776100099 0.49962601066
          0.32457500696 -0.15494899452 0.93308198452 -0.28943300247 -0.12849000096 0.94853502512
          -0.99554598331 -0.067083202302 0.066242203116 -0.87838500738 -0.081180602312 0.47100999951
          -0.97304600477 0.21882499754 -0.072782501578 -0.85323297977 0.01235049963 -0.5213829875
          -0.30082300305 0.42076298594 -0.85584098101 0.29230800271 0.4223279953 -0.85801798105
          0.86312502623 0.23568600416 -0.44661700726 0.98425900936 0.17106799781 -0.044392500073
          -0.40529501438 0.91115701199 -0.07434900105 -0.32722300291 0.94493001699 0.0056542297825
          -0.52040302753 0.61020600796 -0.59735202789 -0.0081816501915 0.64950102568 -0.76031702757
          0.22061699629 0.94853001833 -0.22719700634 0.41051098704 0.90932697058 -0.067862302065
          0.42875000834 0.90306901932 0.025284800678 0.34790998697 0.93734300137 0.018617099151
          0.12444400042 0.98894697428 -0.080604799092 0.025875300169 0.99899798632 0.036528300494
          0.27261200547 0.96088200808 0.048870898783 -0.037877399474 0.99919599295 -0.013114700094
          0.18484500051 0.97380298376 0.13243800402 0.053406201303 0.98183500767 0.18206299841
          -0.012005600147 0.99886202812 0.046158399433 -0.04211679846 0.98212099075 0.18347999454
          -0.025973100215 0.99903202057 0.03550440073 -0.25466799736 0.96600997448 0.04438149929
          -0.19238600135 0.97306799889 0.12699100375 0.96527898312 0.10983800143 0.237007007
          0.60208201408 0.14959800243 0.78429400921 0.046594001353 0.16576400399 0.98506402969
          -0.59539502859 0.095871597528 0.79769301414 -0.99654597044 0.080394402146 0.0208011996
          -0.97954797745 0.068475700915 0.18919800222 0.69639700651 -0.6981549859 0.16616599262
          0.26816299558 -0.90442800522 0.33181101084 0.018300199881 -0.92311698198 0.38408300281
          -0.26299700141 -0.90601801872 0.3316090107 -0.96381002665 -0.1902589947 0.18674199283
          -0.95823097229 -0.2857260108 0.012445700355 0.99840599298 -0.041682898998 0.038045100868
          0.96147799492 -0.27368101478 0.02566649951 -0.4186219871 -0.8307480216 -0.36689698696
          -0.96211999655 -0.19525000453 0.19027200341 -0.29549700022 -0.86970800161 -0.39533400536
          0.92773598433 -0.3040420115 -0.21648299694 0.30805000663 -0.86712902784 -0.39139801264
          0.36790901423 -0.69973999262 0.61237800121 0.48105099797 -0.74070298672 -0.46898698807
          0.093244098127 -0.88240998983 0.46114900708 -0.058474201709 -0.99828201532 -0.0036613300908
          0.18960799277 -0.8951010108 -0.40353798866 0.058724600822 -0.99827098846 -0.0024078499991
          -0.11132399738 -0.88122802973 0.4593949914 0.99392199516 -0.10714899749 0.025263499469
          -0.99613499641 -0.087835498154 0.00016374900588 -0.94647997618 0.32274800539 0.003061180003
          0.96935099363 0.24450799823 0.02397570014 0.89418399334 0.44554999471 0.043828401715
          0.10690800101 0.99384701252 0.028964700177 0.28421500325 0.95821201801 0.03241790086
          -0.25875800848 0.96548402309 0.029734000564 -0.99342697859 -0.10304699838 0.049830999225
          0.99369597435 -0.10095400363 0.048744298518 -0.50003802776 -0.80743801594 0.31305998564
          -0.50958698988 -0.81988197565 -0.26098901033 -0.29096099734 -0.89801698923 0.33001101017
          0.50241500139 -0.80674999952 0.31102100015 0.29001000524 -0.89833498001 0.32998400927
          0.51736801863 -0.81482797861 -0.26150798798 -0.17348900437 -0.92864000797 0.32791599631
          -0.17880600691 -0.93208897114 -0.31502199173 0.83656102419 -0.54733902216 -0.024184400216
          0.17084300518 -0.92879498005 0.32886698842 -0.83625000715 -0.54792100191 -0.021646499634
          -0.7806429863 -0.57265400887 -0.25032499433 -0.95902401209 -0.2803530097 0.040924198925
          0.95914399624 -0.27991101146 0.041144501418 -0.42393100262 -0.82970100641 -0.36315000057
          -0.91620200872 -0.28530299664 0.28138101101 -0.29978001118 -0.87031197548 -0.39075601101
          0.93074500561 -0.29629901052 -0.2142920047 0.31290000677 -0.86612898111 -0.38976100087
          0.43291899562 -0.81348901987 0.38835299015 0.49865800142 -0.73843902349 -0.45392599702
          -0.17027999461 -0.81339597702 0.55622899532 -0.059808101505 -0.99820899963 0.00088423199486
          0.19294600189 -0.89682501554 -0.3980909884 0.059727098793 -0.9982150197 0.00066627102206
          0.18085899949 -0.89661800861 0.40418499708 -0.99399298429 -0.10147999972 0.040976900607
          0.99415802956 -0.10022799671 0.040063500404 -0.50912100077 -0.81222701073 0.2847520113
          -0.51728498936 -0.82142299414 -0.24016700685 -0.2970879972 -0.90578097105 0.30215901136
          0.5118650198 -0.81117302179 0.2828310132 0.2964810133 -0.90599602461 0.30210900307
          0.52490997314 -0.81643098593 -0.24064600468 -0.17742800713 -0.9370200038 0.30085501075
          -0.18312500417 -0.9399870038 -0.28790599108 0.83970201015 -0.54267299175 -0.020164500922
          0.17513899505 -0.93716800213 0.30173200369 -0.83943998814 -0.54316002131 -0.017824400216
          -0.79228699207 -0.56638902426 -0.22690099478 0.99461597204 -0.10226500034 -0.016765100881
          -0.99125897884 -0.13080699742 -0.017189400271 0.97769498825 0.20551000535 0.043331298977
          -0.89369601011 0.44664299488 0.042637001723 0.26329499483 0.96454000473 0.018388500437
          -0.96006399393 -0.27785199881 0.032787200063 0.96019697189 -0.27736899257 0.032991599292
          -0.43166399002 -0.83449500799 -0.34246701002 -0.92337399721 -0.28242400289 0.26003199816
          -0.30595898628 -0.87777000666 -0.36865898967 0.9316830039 -0.2965579927 -0.20980800688
          0.31881800294 -0.87356597185 -0.36774501204 0.44163200259 -0.8203690052 0.36325699091
          0.49873200059 -0.74761402607 -0.43856599927 -0.19061300159 -0.90513598919 0.37999299169
          -0.060235500336 -0.99818402529 -0.0011015300406 0.19669899344 -0.90583300591 -0.37520200014
          0.060304298997 -0.9981790185 -0.0012925099581 0.18518599868 -0.90609699488 0.38038599491
          -0.97811800241 0.20335100591 0.043973699212 -0.23795700073 0.9708840251 0.027591599151
          0.10048499703 0.9944549799 0.031000599265 -0.99891501665 -0.032776098698 0.033083599061
          -0.99445599318 -0.099564701319 0.033831100911 0.99883300066 -0.031306900084 0.036781899631
          0.99461597204 -0.098255500197 0.032929200679 -0.51264297962 -0.81047302485 0.28342598677
          -0.52034199238 -0.81802099943 -0.24512200058 -0.29936900735 -0.90482598543 0.30276700854
          0.51532399654 -0.80946302414 0.28144401312 0.29866600037 -0.90507900715 0.30270600319
          0.52812200785 -0.81287801266 -0.24559299648 -0.17886899412 -0.93626999855 0.30233299732
          -0.18398199975 -0.93816798925 -0.29324400425 0.84204798937 -0.53913199902 -0.017106499523
          0.17644800246 -0.93644499779 0.30321100354 -0.84181898832 -0.53955799341 -0.014763100073
          -0.79434800148 -0.56461000443 -0.22411200404 0.90531498194 0.42294299603 0.039033401757
          -0.96170800924 -0.26732701063 0.060445498675 0.96165001392 -0.26752799749 0.060487598181
          -0.92664897442 -0.28392198682 0.24639500678 -0.2890650034 -0.93742698431 0.19409300387
          0.29548600316 -0.93747699261 0.18391600251 0.44832599163 -0.82583898306 0.34204399586
          -0.1936929971 -0.91276699305 0.35963699222 -0.072927899659 -0.99190998077 0.10390800238
          0.065545298159 -0.99364197254 0.091540798545 0.18857200444 -0.91369897127 0.35999199748
          0.98059999943 0.19262699783 0.036319401115 0.27173599601 0.96224701405 0.015474099666
          0.2653349936 0.96401500702 0.01650499925 0.99633800983 0.085066601634 -0.0086409095675
          -0.9951660037 0.097155697644 -0.01435310021 -0.89782899618 -0.43981799483 0.021518899128
          0.89818400145 -0.43910500407 0.021276000887 0.3948380053 -0.9187309742 0.0060331998393
          0.20372000337 -0.97902697325 0.0019446300576 0.99443602562 -0.10507100075 -0.0075369002298
          -0.99989801645 -0.0056128501892 -0.013124000281 -0.99409800768 -0.10819900036 -0.0079486295581
          -0.89845997095 0.43779999018 0.033192399889 -0.97862100601 0.20552100241 -0.0078601296991
          -0.16787 -0.98566097021 0.017074599862 -0.99461501837 -0.10338900238 -0.0071213301271
          -0.95166999102 -0.30626499653 0.022914199159 0.98360198736 -0.17873199284 0.024126699194
          0.34561899304 -0.93835997581 0.005257090088 0.18003299832 -0.98356598616 0.013638599776
          -0.98532700539 -0.077617697418 -0.15200600028 -0.98494702578 0.1705520004 0.028137000278
          0.97433400154 0.22337299585 0.027871299535 0.31747099757 0.94646900892 -0.058386601508
          0.23857399821 0.97078597546 0.025618899614 -0.99223202467 -0.062261600047 -0.10769499838
          -0.42580398917 -0.12543900311 -0.89607799053 0.42615699768 -0.13193200529 -0.89497697353
          0.99653798342 -0.050793100148 -0.065811596811 -0.21210199594 -0.65992802382 0.72076898813
          0.2005379945 -0.64806497097 0.73470801115 0.025486100465 -0.78865098953 0.61431199312
          -0.98486202955 -0.16104499996 -0.064117200673 0.98495298624 -0.16008099914 -0.065124496818
          -0.97523200512 -0.1571380049 0.15565900505 0.97561097145 -0.15509499609 0.15533399582
          -0.98546898365 -0.15719899535 -0.064341597259 0.98555499315 -0.15626099706 -0.065303102136
          -0.97804701328 -0.15454900265 0.13978399336 0.97843199968 -0.15242099762 0.1394200027
          -0.98519599438 -0.15637600422 -0.070254698396 0.98528498411 -0.15541000664 -0.071144200861
          -0.97912698984 -0.15409199893 0.13253800571 0.97950398922 -0.1519870013 0.13218300045
          -0.96210497618 -0.27162998915 0.023914700374 -0.99903798103 -0.035033598542 0.026369500905
          -0.89978897572 -0.43581300974 0.021144600585 0.476098001 -0.87935501337 0.0080997496843
          0.32602098584 -0.94528001547 0.012506200001 0.97447699308 -0.22318899632 0.024125199765
          -0.16917599738 -0.98171198368 0.087302401662 -0.97085899115 0.23791800439 0.028779700398
          0.9744579792 0.22278299928 0.028257800266 -0.89989799261 0.43510499597 0.029460500926
          0.89994800091 0.43503600359 0.028934299946 0.030803399161 0.99839502573 0.047527700663
          0.39591100812 0.91213399172 -0.10614299774 0.18241600692 0.97745299339 0.10634800047
          0.95830398798 0.026900600642 -0.28448098898 -0.94715601206 -0.13705700636 -0.29001998901
          -0.95666998625 -0.027299299836 -0.28988999128 -0.66186499596 -0.71818298101 -0.2148219943
          -0.97106301785 -0.23689299822 0.030289800838 -0.99915397167 -0.022058099508 0.03470319882
          -0.90144097805 -0.43198901415 0.028107199818 0.47704800963 -0.87881302834 0.010620200075
          0.32361400127 -0.94576597214 0.028301499784 0.97439301014 -0.22261700034 0.03162850067
          -0.075818002224 -0.99624097347 0.041889000684 -0.97185200453 0.2325129956 0.037961900234
          0.97577798367 0.21588400006 0.035381101072 -0.90166801214 0.43074798584 0.038105498999
          0.90030902624 0.43396401405 0.033464100212 0.38964799047 0.63778197765 -0.66438597441
          0.49747499824 -0.86733901501 0.015530800447 0.29014900327 -0.93940800428 0.18255600333
          0.95846199989 -0.28276398778 0.037356100976 0.98995798826 0.13493800163 0.042130000889
          0.90864300728 0.41544398665 0.042126901448 -0.95161700249 -0.17244499922 0.25433701277
          -0.042944900692 0.00029006900149 0.99907702208 -0.12715399265 -0.99184000492 -0.0092554604635
          -0.95540499687 0.29216599464 0.042891200632 -0.90485697985 0.42363101244 0.042080901563
          -0.042944900692 0.00029006900149 0.99907702208 0.1320990026 0.99107402563 0.017943199724
          -0.2670159936 -0.95638602972 0.11844500154 0.086034402251 -0.99597001076 -0.025330999866
          0.26499000192 -0.94764602184 0.17817600071 -0.024284400046 -0.97234499454 0.23228299618
          0.075356796384 -0.99316197634 -0.089169599116 -0.0025074400473 -0.0032519700471 0.99999201298
          -0.0025632800534 -0.0032259500585 0.99999201298 -0.87443298101 -0.40938198566 0.26033300161
          -0.83822697401 -0.43467199802 -0.32929500937 -0.83822697401 -0.43467199802 -0.32929500937
          -0.22837899625 -0.97356200218 0.0044783297926 -0.65603798628 0.75462400913 0.012549100444
          0.089824400842 -0.95493501425 -0.28289601207 0.086556702852 -0.87586897612 -0.47472301126
          0.072898797691 -0.99621397257 -0.047372099012 0.065467499197 -0.99682897329 -0.045240901411
          0.082529500127 -0.77237099409 -0.62978702784 0.042663000524 -0.36825299263 -0.92874598503
          0.084801197052 -0.97086501122 -0.22411899269 0.082878999412 -0.98646098375 -0.14151600003
          0.06013289839 -0.52582299709 -0.8484659791 -0.043116301298 0.00058013998205 0.99906998873
          0.21165899932 -0.7664449811 -0.60643398762 -0.20749400556 -0.7567909956 -0.6198490262
          -0.23932500184 -0.81693899632 0.52472198009 0.028098899871 -0.74017798901 0.67182302475
          0.2707760036 -0.80816602707 0.52301901579 -0.0083329901099 0.65102702379 -0.75900900364
          0.94457101822 0.22763499618 0.23657500744 0.57936900854 0.30848199129 0.75443297625
          0.043720498681 0.34199899435 0.93868297338 -0.56860202551 0.31140100956 0.7613940239
          -0.95599001646 0.22319200635 0.19044399261 0.75430101156 -0.65540701151 0.038365200162
          -0.75889998674 -0.65119898319 0.0033301399089 -0.1717479974 -0.56877702475 -0.80435997248
          0.2041079998 -0.55846202374 -0.80402702093 0.17427200079 -0.56847298145 0.8040329814
          -0.18574799597 -0.57186698914 -0.79904097319 0.20653800666 -0.56740498543 -0.79711598158
          -0.1961980015 -0.58219999075 0.78901797533 0.18058300018 -0.58460897207 0.7909629941
          -0.1818870008 -0.58827501535 -0.78794002533 0.21531400084 -0.57661300898 -0.78813499212
          -0.20263500512 -0.59027600288 0.78135299683 0.1868519932 -0.59276199341 0.78340297937