<?xml version="1.0"?>
<VTKFile type="PolyData" version="0.1" byte_order="LittleEndian" compressor="vtkZLibDataCompressor">
  <PolyData>
    <Piece NumberOfPoints="21" NumberOfVerts="0" NumberOfLines="0" NumberOfStrips="0" NumberOfPolys="38">
      <PointData Normals="Normals">
        <DataArray type="Float32" Name="Normals" NumberOfComponents="3" format="ascii" RangeMin="0.99999998191" RangeMax="1.0000000158">
          0.4338837564 0 0.90096884966 0 0 1
          -1.8965661042e-08 0.4338837564 0.90096884966 -0.30680209398 -0.30680218339 0.90096884966
          0.43388366699 0 -0.90096890926 0 0 -1
          0.30680209398 0.30680209398 -0.90096890926 -1.8965659265e-08 0.43388366699 -0.90096890926
          -0.30680209398 0.30680206418 -0.90096890926 -0.43388366699 -3.7931318531e-08 -0.90096890926
          5.689697602e-08 -0.43388366699 -0.90096890926 0.97492790222 0 -0.22252097726
          0.78183144331 0 -0.62348985672 0.5528383255 0.5528383255 -0.62348985672
          -4.2615454277e-08 0.97492790222 -0.22252097726 -3.4174938435e-08 0.78183144331 -0.62348985672
          -0.68937820196 0.68937808275 -0.22252097726 -0.5528383255 0.5528382659 -0.62348985672
          -0.78183144331 -6.8349876869e-08 -0.62348985672 -0.68937808275 -0.68937820196 -0.22252097726
          1.025248153e-07 -0.78183144331 -0.62348985672
        </DataArray>
      </PointData>
      <CellData>
      </CellData>
      <Points>
        <DataArray type="Float32" Name="Points" NumberOfComponents="3" format="ascii" RangeMin="0.03292362017" RangeMax="2.6788227595">
          0.19660100341 0.065852001309 -0.017153499648 0.0095739597455 0.026465199888 -0.017085000873
          0.028884500265 0.20250700414 -0.017075100914 0.039309900254 -0.21722400188 -0.038472998887
          0.27707400918 0.072763197124 -2.3498799801 0.0084574101493 -0.019280299544 -2.6787400246
          0.26660001278 0.21935200691 -2.3462100029 -0.033878698945 0.25769600272 -2.4389300346
          -0.25817000866 0.21924500167 -2.3420898914 -0.26851299405 0.072732396424 -2.3460700512
          -0.15464399755 -0.043537501246 -2.2961699963 0.23374600708 0.070635199547 -0.92793399096
          0.25677898526 0.068132698536 -1.7272100449 0.2456099987 0.20444299281 -1.6670800447
          0.0019624899141 0.22098200023 -0.92791801691 -0.11853399873 0.23993499577 -1.7776399851
          -0.21173499525 0.18868400156 -0.64565497637 -0.24880300462 0.20800100267 -1.8519899845
          -0.25345000625 0.068096503615 -1.7206599712 0.039309900254 -0.21347999573 -0.50930202007
          -0.14438700676 -0.042769499123 -1.7193000317
        </DataArray>
      </Points>
      <Verts>
        <DataArray type="Int32" Name="connectivity" format="ascii" RangeMin="1e+299" RangeMax="-1e+299">
        </DataArray>
        <DataArray type="Int32" Name="offsets" format="ascii" RangeMin="1e+299" RangeMax="-1e+299">
        </DataArray>
      </Verts>
      <Lines>
        <DataArray type="Int32" Name="connectivity" format="ascii" RangeMin="1e+299" RangeMax="-1e+299">
        </DataArray>
        <DataArray type="Int32" Name="offsets" format="ascii" RangeMin="1e+299" RangeMax="-1e+299">
        </DataArray>
      </Lines>
      <Strips>
        <DataArray type="Int32" Name="connectivity" format="ascii" RangeMin="1e+299" RangeMax="-1e+299">
        </DataArray>
        <DataArray type="Int32" Name="offsets" format="ascii" RangeMin="1e+299" RangeMax="-1e+299">
        </DataArray>
      </Strips>
      <Polys>
        <DataArray type="Int32" Name="connectivity" format="ascii" RangeMin="0" RangeMax="20">
          0 2 1 3 0 1
          4 5 6 6 5 7
          7 5 8 8 5 9
          9 5 10 10 5 4
          11 12 13 12 4 6
          12 6 13 0 11 14
          0 14 2 11 13 15
          11 15 14 13 6 7
          13 7 15 2 14 16
          14 15 17 14 17 16
          15 7 8 15 8 17
          2 16 1 16 17 18
          17 8 9 17 9 18
          1 16 19 1 19 3
          16 18 19 19 18 20
          18 9 10 18 10 20
          19 20 12 20 10 4
          20 4 12 3 19 11
          3 11 0 19 12 11
        </DataArray>
        <DataArray type="Int32" Name="offsets" format="ascii" RangeMin="3" RangeMax="114">
          3 6 9 12 15 18
          21 24 27 30 33 36
          39 42 45 48 51 54
          57 60 63 66 69 72
          75 78 81 84 87 90
          93 96 99 102 105 108
          111 114
        </DataArray>
      </Polys>
    </Piece>
  </PolyData>
</VTKFile>
