<?xml version="1.0"?>
<VTKFile type="PolyData" version="0.1" byte_order="LittleEndian" compressor="vtkZLibDataCompressor">
  <PolyData>
    <Piece NumberOfPoints="23" NumberOfVerts="0" NumberOfLines="0" NumberOfStrips="0" NumberOfPolys="42">
      <PointData Normals="Normals">
        <DataArray type="Float32" Name="Normals" NumberOfComponents="3" format="ascii" RangeMin="0.99999998191" RangeMax="1.0000000158">
          0.4338837564 0 0.90096884966 0.30680212379 0.30680215359 0.90096884966
          -0.4338837564 -3.7931322083e-08 0.90096884966 5.6896986678e-08 -0.4338837564 0.90096884966
          0.43388366699 0 -0.90096890926 0 0 -1
          0.30680209398 0.30680209398 -0.90096890926 -1.8965659265e-08 0.43388366699 -0.90096890926
          -0.30680209398 0.30680206418 -0.90096890926 -0.43388366699 -3.7931318531e-08 -0.90096890926
          -0.30680206418 -0.30680212379 -0.90096890926 5.689697602e-08 -0.43388366699 -0.90096890926
          0.30680212379 -0.30680203438 -0.90096890926 0.97492790222 0 -0.22252097726
          0.68937814236 0.68937814236 -0.22252097726 0.78183144331 0 -0.62348985672
          -3.4174938435e-08 0.78183144331 -0.62348985672 -0.97492790222 -8.5230908553e-08 -0.22252097726
          -0.78183144331 -6.8349876869e-08 -0.62348985672 -0.5528382659 -0.55283838511 -0.62348985672
          1.2784636283e-07 -0.97492790222 -0.22252097726 1.025248153e-07 -0.78183144331 -0.62348985672
          0.55283838511 -0.55283820629 -0.62348985672
        </DataArray>
      </PointData>
      <CellData>
      </CellData>
      <Points>
        <DataArray type="Float32" Name="Points" NumberOfComponents="3" format="ascii" RangeMin="0.036456250435" RangeMax="2.6892788173">
          -0.0095739597455 -0.030749099329 -0.017084799707 -0.039309900254 0.21294000745 -0.038472801447
          -0.19660100341 -0.070135898888 -0.017153300345 -0.028884399682 -0.2067900002 -0.017075000331
          0.28360199928 -0.078370399773 -2.3212800026 0.011509999633 -0.078435301781 -2.6881101131
          0.26984798908 0.021013300866 -2.1901900768 -0.11736299843 0.039395499974 -2.4180400372
          -0.26340100169 0.021013399586 -2.1901900768 -0.27715501189 -0.078370198607 -2.3212800026
          -0.26095300913 -0.21820400655 -2.3879899979 0.010988499969 -0.25564399362 -2.4464700222
          0.26739999652 -0.21820400655 -2.3879899979 0.21868699789 -0.073437198997 -0.64565998316
          -0.039309900254 0.20919600129 -0.50930202007 0.26203298569 -0.099719800055 -1.7413400412
          -0.14626899362 0.045031800866 -1.8110899925 -0.23021900654 -0.069595903158 -0.929223001
          -0.2555859983 -0.099719598889 -1.7413400412 -0.24954900146 -0.20645800233 -1.87172997
          -5.3644200193e-09 -0.22484999895 -0.92791801691 -0.10210400075 -0.23157300055 -1.6646399498
          0.24681200087 -0.20138199627 -1.597900033
        </DataArray>
      </Points>
      <Verts>
        <DataArray type="Int32" Name="connectivity" format="ascii" RangeMin="1e+299" RangeMax="-1e+299">
        </DataArray>
        <DataArray type="Int32" Name="offsets" format="ascii" RangeMin="1e+299" RangeMax="-1e+299">
        </DataArray>
      </Verts>
      <Lines>
        <DataArray type="Int32" Name="connectivity" format="ascii" RangeMin="1e+299" RangeMax="-1e+299">
        </DataArray>
        <DataArray type="Int32" Name="offsets" format="ascii" RangeMin="1e+299" RangeMax="-1e+299">
        </DataArray>
      </Lines>
      <Strips>
        <DataArray type="Int32" Name="connectivity" format="ascii" RangeMin="1e+299" RangeMax="-1e+299">
        </DataArray>
        <DataArray type="Int32" Name="offsets" format="ascii" RangeMin="1e+299" RangeMax="-1e+299">
        </DataArray>
      </Strips>
      <Polys>
        <DataArray type="Int32" Name="connectivity" format="ascii" RangeMin="0" RangeMax="22">
          1 2 0 2 3 0
          4 5 6 6 5 7
          7 5 8 8 5 9
          9 5 10 10 5 11
          11 5 12 12 5 4
          0 13 14 0 14 1
          13 15 14 15 4 6
          14 15 16 15 6 7
          15 7 16 16 7 8
          1 14 17 1 17 2
          14 16 18 14 18 17
          16 8 9 16 9 18
          17 18 19 18 9 10
          18 10 19 2 17 20
          2 20 3 17 19 21
          17 21 20 19 10 11
          19 11 21 3 20 13
          20 21 22 20 22 13
          21 11 12 21 12 22
          3 13 0 13 22 15
          22 12 4 22 4 15
        </DataArray>
        <DataArray type="Int32" Name="offsets" format="ascii" RangeMin="3" RangeMax="126">
          3 6 9 12 15 18
          21 24 27 30 33 36
          39 42 45 48 51 54
          57 60 63 66 69 72
          75 78 81 84 87 90
          93 96 99 102 105 108
          111 114 117 120 123 126
        </DataArray>
      </Polys>
    </Piece>
  </PolyData>
</VTKFile>
