<VTKFile type="PolyData" version="0.1" byte_order="LittleEndian">
  <PolyData>
    <Piece NumberOfPoints="77" NumberOfVerts="0" NumberOfLines="0" NumberOfStrips="0" NumberOfPolys="135">
      <PointData Normals="Normals">
        <DataArray type="Float32" Name="Normals" NumberOfComponents="3" format="ascii" RangeMin="0.99999948115" RangeMax="1.0000005229">
          -0.17769899964 -0.93780201674 0.29824501276 0.06013289839 -0.52582299709 -0.8484659791
          -0.10249800235 -0.99470299482 0.0077286101878 -0.95293200016 -0.30223199725 0.024023899809
          -0.98446398973 -0.16790899634 0.051360398531 -0.30633100867 -0.72389900684 0.61816799641
          0.57172399759 -0.77121001482 0.27994099259 0.96668601036 -0.10200800002 0.23476199806
          -0.54027599096 -0.8408960104 0.031546998769 -0.99765002728 -0.06195820123 -0.02924340032
          0.8995450139 0.43587499857 0.028854699805 0.99821299314 -0.040045000613 0.044345300645
          0.91415697336 0.35168400407 -0.20158199966 0.35389900208 -0.86867302656 0.34664401412
          0.36720898747 -0.16737499833 -0.91495501995 0.10282599926 -0.99356502295 0.047500301152
          0.28399500251 0.036040801555 -0.95814800262 -0.59324002266 -0.18527400494 0.78341501951
          -0.97370797396 -0.13008600473 0.18700300157 0.32457500696 -0.15494899452 0.93308198452
          -0.29512700438 0.035735301673 -0.95478898287 0.60729300976 -0.14125500619 0.78181999922
          0.84666901827 0.012015099637 -0.5319839716 0.1397099942 -0.96187597513 -0.2351090014
          0.96397799253 -0.09048730135 -0.25011599064 -0.28943300247 -0.12849000096 0.94853502512
          -0.011333200149 0.060727998614 -0.99809002876 0.18964099884 -0.89500302076 -0.40374100208
          0.66246598959 -0.1346269995 -0.73689502478 -0.67874902487 -0.11190100014 -0.72579497099
          -0.81525999308 -0.36399298906 -0.45039901137 0.98995798826 0.13493800163 0.042130000889
          0.024462800473 -0.80155700445 0.59741801023 0.013417299837 -0.93182301521 0.36266499758
          0.0084017300978 -0.98142302036 0.19167099893 0.14692500234 -0.98911601305 -0.0078691802919
          0.20568299294 -0.8717520237 0.44468298554 0.54465597868 -0.83835601807 0.0225550998
          0.24446700513 -0.95867300034 -0.14553900063 0.71428602934 -0.65035200119 0.25853198767
          -0.26243001223 -0.94558000565 -0.19237500429 0.0084331901744 -0.99792200327 0.063883699477
          0.36200100183 -0.88456898928 -0.29409700632 0.99821102619 -0.052638698369 -0.028355199844
          -0.096363000572 -0.99423098564 0.047097198665 -0.0028415899724 -0.99796700478 0.06366609782
          -0.98494702578 0.1705520004 0.028137000278 0.019983800128 -0.79948502779 0.60035401583
          -0.57762598991 0.40119099617 -0.71091097593 0.10690800101 0.99384701252 0.028964700177
          0.85518300533 0.12762899697 0.50236701965 -0.86621600389 0.17197099328 0.46914300323
          -0.10968499631 0.97980099916 0.16721199453 -0.23182499409 0.18884299695 0.95425099134
          -0.93621402979 0.26658600569 -0.22898599505 -0.99897801876 0.04460439831 -0.007272540126
          -0.99872398376 -0.044866200536 0.023169899359 0.32242500782 0.16139900684 0.9327340126
          -0.26427400112 0.96405297518 -0.027589200065 0.61894100904 0.3534129858 -0.70143502951
          0.26913198829 0.96253198385 -0.033178001642 0.13199800253 0.97916299105 -0.15432600677
          0.018432000652 0.99580699205 0.089597798884 0.11123500019 0.97956502438 0.16756699979
          -0.24112400413 0.96749198437 0.076280303299 0.046483401209 -0.15874099731 0.98622500896
          0.0080744698644 0.97929000854 0.20230199397 0.23420499265 0.96836298704 0.086148299277
          -0.20958200097 -0.87967801094 0.4268989861 -0.4103949964 -0.86602598429 -0.28561198711
          -0.18807899952 -0.97959399223 0.070869602263 -0.77181601524 -0.61572098732 -0.15870499611
          -0.32986500859 -0.87692201138 0.34956800938 0.10951600224 -0.99396198988 0.0068203001283
          0.075356796384 -0.99316197634 -0.089169599116 0.042663000524 -0.36825299263 -0.92874598503
          -0.0025074400473 -0.0032519700471 0.99999201298
        </DataArray>
      </PointData>
      <CellData>
      </CellData>
      <Points>
        <DataArray type="Float32" Name="Points" NumberOfComponents="3" format="ascii" RangeMin="0.25766018145" RangeMax="2.6986224967">
          -0.14438700676 -0.042769499123 -1.7193000317 0.039309900254 -0.17673900723 -0.5889160037
          -0.048016700894 -0.031868100166 -2.6014099121 -0.24208900332 0.073180399835 -1.3809499741
          -0.27296298742 0.070901997387 -2.2352099419 -0.24443300068 0.041665498167 -2.213269949
          -0.12170500308 0.021553099155 -2.2214999199 -0.094284698367 0.060102600604 -2.329449892
          -0.15615400672 0.044029999524 -2.5851900578 -0.264429003 0.0044096698985 -2.2862200737
          0.23022800684 0.19484500587 -1.0788799524 0.26954600215 0.10438200086 -2.0152299404
          0.2631379962 0.20511199534 -2.466739893 0.086849503219 -0.01826970093 -2.5476200581
          0.120385997 0.006070420146 -2.6592900753 0.10443300009 0.029314899817 -2.4738099575
          0.095849499106 0.18203499913 -2.6826400757 0.076473601162 0.060595698655 -2.3961799145
          0.10461600125 0.060179799795 -2.3400700092 -0.028185600415 0.060667999089 -2.4057600498
          -0.080957099795 0.18197800219 -2.6803600788 -0.061070598662 0.060541901737 -2.3890199661
          0.22767700255 0.082818500698 -2.5640399456 0.23482699692 0.043163601309 -2.4679999352
          0.26767200232 0.072943501174 -2.4677600861 0.046647101641 0.060697201639 -2.4096200466
          0.0084685003385 0.211225003 -2.6903300285 0.13847999275 0.029050400481 -2.2005000114
          0.17166000605 0.074814297259 -2.6430499554 -0.1597969979 0.074762202799 -2.6392199993
          -0.20772199333 0.064992301166 -2.5508000851 0.19660100341 0.16565799713 -0.017153499648
          -0.03740260005 -0.001295509981 -2.5043299198 0.0089284498245 -0.027146600187 -2.5520598888
          0.0094935595989 0.024343099445 -2.4849600792 0.18034100533 -0.040707800537 -2.3101699352
          0.2178940028 -0.024892399088 -2.274009943 0.16775000095 0.044064499438 -2.5896100998
          0.20202299953 0.053363401443 -2.528949976 -0.14567199349 -0.028428399935 -2.2645699978
          -0.11188100278 -0.014845700003 -2.6336200237 0.053855601698 0.029977200553 -2.4534399509
          0.25012001395 -0.017207900062 -2.1347200871 0.2698610127 0.0046822899021 -2.3984200954
          -0.088921502233 0.029292900115 -2.466449976 -0.035676598549 0.029960900545 -2.4492900372
          -0.23416900635 0.17943200469 -1.0727599859 0.054792799056 -0.0013252299977 -2.5083799362
          -0.1582480073 0.20958000422 -2.6327600479 -0.12636899948 0.24932800233 -2.1559200287
          -0.080649398267 0.2261839956 -2.3637499809 0.093406498432 0.22643999755 -2.3731300831
          0.078553497791 0.25215899944 -2.4019598961 0.04622330144 0.22737300396 -2.407020092
          -0.25079301 0.20507100224 -2.4651401043 -0.27569401264 0.17131100595 -2.1938800812
          -0.27567699552 0.10642000288 -2.1935799122 -0.027745200321 0.22726599872 -2.4031701088
          -0.22121800482 0.23318299651 -2.440030098 0.17064200342 0.2096759975 -2.6361699104
          0.23312599957 0.23328399658 -2.4435300827 0.1521909982 0.23773899674 -2.5913701057
          -0.033878698945 0.25769600272 -2.4389300346 -0.06310120225 0.2519389987 -2.3947799206
          0.1081859991 0.2503759861 -2.3430099487 0.010056099854 0.060726001859 -2.4134199619
          0.0100076003 0.25271400809 -2.4199399948 -0.097757697105 0.25007000566 -2.3327000141
          -0.21226499975 -0.02467009984 -2.2668600082 -0.24674700201 -0.017142400146 -2.1267900467
          -0.17208300531 -0.040623199195 -2.3039400578 0.15140500665 -0.028362000361 -2.3255798817
          -0.071777999401 -0.018220599741 -2.5423099995 0.063845202327 -0.031891100109 -2.6041998863
          0.039309900254 -0.21347999573 -0.50930202007 0.16981300712 -0.16278000176 -0.58803600073
          0.16981300712 -0.20489999652 -0.038105700165
        </DataArray>
      </Points>
      <Verts>
        <DataArray type="Int32" Name="connectivity" format="ascii" RangeMin="1e+299" RangeMax="-1e+299">
        </DataArray>
        <DataArray type="Int32" Name="offsets" format="ascii" RangeMin="1e+299" RangeMax="-1e+299">
        </DataArray>
      </Verts>
      <Lines>
        <DataArray type="Int32" Name="connectivity" format="ascii" RangeMin="1e+299" RangeMax="-1e+299">
        </DataArray>
        <DataArray type="Int32" Name="offsets" format="ascii" RangeMin="1e+299" RangeMax="-1e+299">
        </DataArray>
      </Lines>
      <Strips>
        <DataArray type="Int32" Name="connectivity" format="ascii" RangeMin="1e+299" RangeMax="-1e+299">
        </DataArray>
        <DataArray type="Int32" Name="offsets" format="ascii" RangeMin="1e+299" RangeMax="-1e+299">
        </DataArray>
      </Strips>
      <Polys>
        <DataArray type="Int32" Name="connectivity" format="ascii" RangeMin="0" RangeMax="76">
          0 1 2 3 4 5
          6 7 8 9 5 4
          10 11 12 13 14 15
          16 17 18 19 20 21
          22 23 24 25 16 26
          27 28 18 7 29 8
          30 3 5 31 28 22
          32 33 34 35 36 37
          38 22 28 39 40 6
          41 15 17 42 43 23
          6 44 7 39 6 8
          25 34 41 20 29 7
          21 7 44 19 45 34
          46 30 29 47 13 15
          20 48 29 18 17 15
          49 48 50 27 37 28
          51 52 53 46 54 55
          56 4 3 16 18 28
          57 20 26 49 58 48
          31 10 59 10 12 60
          60 61 59 46 48 58
          57 62 63 51 61 64
          16 59 61 19 65 26
          53 52 66 49 67 62
          31 59 16 64 61 60
          62 66 52 40 44 6
          45 21 44 68 8 30
          46 29 48 69 5 9
          70 39 8 36 23 38
          27 71 37 11 24 43
          43 24 23 68 30 5
          32 44 72 27 14 71
          72 44 40 73 71 13
          32 72 2 1 33 2
          47 34 33 74 70 69
          0 2 72 71 14 13
          36 38 37 30 8 29
          46 55 56 47 41 34
          0 72 40 75 36 35
          1 75 73 19 21 45
          32 45 44 25 65 34
          47 73 13 20 7 21
          57 50 20 25 26 65
          51 16 61 62 67 63
          57 26 66 50 63 67
          50 48 20 57 66 62
          57 63 50 53 66 26
          53 26 16 51 64 52
          51 53 16 46 56 3
          27 18 15 27 15 14
          10 60 59 31 22 11
          32 2 33 32 34 45
          47 33 73 47 15 41
          38 23 22 22 24 11
          38 28 37 36 42 23
          0 40 39 68 70 8
          68 5 69 68 69 70
          35 37 71 75 42 36
          75 76 42 19 34 65
          19 26 20 25 41 17
          25 17 16 49 50 67
          46 58 54 46 3 30
          31 16 28 31 11 10
          75 71 73 76 43 42
          1 76 75 75 35 71
          1 74 76 1 73 33
          0 70 74 0 39 70
          0 74 1
        </DataArray>
        <DataArray type="Int32" Name="offsets" format="ascii" RangeMin="3" RangeMax="405">
          3 6 9 12 15 18
          21 24 27 30 33 36
          39 42 45 48 51 54
          57 60 63 66 69 72
          75 78 81 84 87 90
          93 96 99 102 105 108
          111 114 117 120 123 126
          129 132 135 138 141 144
          147 150 153 156 159 162
          165 168 171 174 177 180
          183 186 189 192 195 198
          201 204 207 210 213 216
          219 222 225 228 231 234
          237 240 243 246 249 252
          255 258 261 264 267 270
          273 276 279 282 285 288
          291 294 297 300 303 306
          309 312 315 318 321 324
          327 330 333 336 339 342
          345 348 351 354 357 360
          363 366 369 372 375 378
          381 384 387 390 393 396
          399 402 405
        </DataArray>
      </Polys>
    </Piece>
  </PolyData>
</VTKFile>
