<?xml version="1.0"?>
<VTKFile type="PolyData" version="0.1" byte_order="LittleEndian">
  <PolyData>
    <Piece NumberOfPoints="54" NumberOfVerts="0" NumberOfLines="0" NumberOfStrips="0" NumberOfPolys="4">
      <PointData Normals="TubeNormals" TCoords="Texture Coordinates">
        <DataArray type="Float32" Name="Texture Coordinates" NumberOfComponents="2" format="ascii" RangeMin="0" RangeMax="1">
          0 0 0 0 0 0
          0 0 0 0 0 0
          0.16666667163 0 0.16666667163 0 0.16666667163 0
          0.16666667163 0 0.16666667163 0 0.16666667163 0
          0.33333334327 0 0.33333334327 0 0.33333334327 0
          0.33333334327 0 0.33333334327 0 0.33333334327 0
          0.5 0 0.5 0 0.5 0
          0.5 0 0.5 0 0.5 0
          0.66666668653 0 0.66666668653 0 0.66666668653 0
          0.66666668653 0 0.66666668653 0 0.66666668653 0
          0.83333331347 0 0.83333331347 0 0.83333331347 0
          0.83333331347 0 0.83333331347 0 0.83333331347 0
          1 0 1 0 1 0
          1 0 1 0 1 0
          0 0 0 0 0 0
          0 0 0 0 0 0
          1 0 1 0 1 0
          1 0 1 0 1 0
        </DataArray>
        <DataArray type="Float32" Name="TubeNormals" NumberOfComponents="3" format="ascii" RangeMin="0.99999999345" RangeMax="1.0000000233">
          0 1 0 0.86602544785 0.4999999702 0
          0.86602538824 -0.5000000596 -0 -8.7422776573e-08 -1 0
          -0.86602544785 -0.49999991059 0 -0.86602532864 0.50000011921 0
          0 1 0 0.86602544785 0.4999999702 0
          0.86602538824 -0.5000000596 -0 -8.7422776573e-08 -1 0
          -0.86602544785 -0.49999991059 0 -0.86602532864 0.50000011921 0
          0 1 0 0.86602544785 0.4999999702 0
          0.86602538824 -0.5000000596 -0 -8.7422776573e-08 -1 0
          -0.86602544785 -0.49999991059 0 -0.86602532864 0.50000011921 0
          0 1 0 0.86602544785 0.4999999702 0
          0.86602538824 -0.5000000596 -0 -8.7422776573e-08 -1 0
          -0.86602544785 -0.49999991059 0 -0.86602532864 0.50000011921 0
          0 1 0 0.86602544785 0.4999999702 0
          0.86602538824 -0.5000000596 -0 -8.7422776573e-08 -1 0
          -0.86602544785 -0.49999991059 0 -0.86602532864 0.50000011921 0
          0 1 0 0.86602544785 0.4999999702 0
          0.86602538824 -0.5000000596 -0 -8.7422776573e-08 -1 0
          -0.86602544785 -0.49999991059 0 -0.86602532864 0.50000011921 0
          0 1 0 0.86602544785 0.4999999702 0
          0.86602538824 -0.5000000596 -0 -8.7422776573e-08 -1 0
          -0.86602544785 -0.49999991059 0 -0.86602532864 0.50000011921 0
          -0 -0 -1 -0 -0 -1
          -0 -0 -1 -0 -0 -1
          -0 -0 -1 -0 -0 -1
          0 0 1 0 0 1
          0 0 1 0 0 1
          0 0 1 0 0 1
        </DataArray>
      </PointData>
      <CellData>
      </CellData>
      <Points>
        <DataArray type="Float32" Name="Points" NumberOfComponents="3" format="ascii" RangeMin="0.61773782141" RangeMax="109.00041284">
          0 0.30000001192 -0.54000002146 0.25980761647 0.14999999106 -0.54000002146
          0.25980761647 -0.15000002086 -0.54000002146 -2.6226834038e-08 -0.30000001192 -0.54000002146
          -0.25980764627 -0.14999997616 -0.54000002146 -0.25980758667 0.15000003576 -0.54000002146
          0 0.30000001192 17.716667175 0.25980761647 0.14999999106 17.716667175
          0.25980761647 -0.15000002086 17.716667175 -2.6226834038e-08 -0.30000001192 17.716667175
          -0.25980764627 -0.14999997616 17.716667175 -0.25980758667 0.15000003576 17.716667175
          0 0.30000001192 35.973331451 0.25980761647 0.14999999106 35.973331451
          0.25980761647 -0.15000002086 35.973331451 -2.6226834038e-08 -0.30000001192 35.973331451
          -0.25980764627 -0.14999997616 35.973331451 -0.25980758667 0.15000003576 35.973331451
          0 0.30000001192 54.229999542 0.25980761647 0.14999999106 54.229999542
          0.25980761647 -0.15000002086 54.229999542 -2.6226834038e-08 -0.30000001192 54.229999542
          -0.25980764627 -0.14999997616 54.229999542 -0.25980758667 0.15000003576 54.229999542
          0 0.30000001192 72.486663818 0.25980761647 0.14999999106 72.486663818
          0.25980761647 -0.15000002086 72.486663818 -2.6226834038e-08 -0.30000001192 72.486663818
          -0.25980764627 -0.14999997616 72.486663818 -0.25980758667 0.15000003576 72.486663818
          0 0.30000001192 90.743331909 0.25980761647 0.14999999106 90.743331909
          0.25980761647 -0.15000002086 90.743331909 -2.6226834038e-08 -0.30000001192 90.743331909
          -0.25980764627 -0.14999997616 90.743331909 -0.25980758667 0.15000003576 90.743331909
          0 0.30000001192 109 0.25980761647 0.14999999106 109
          0.25980761647 -0.15000002086 109 -2.6226834038e-08 -0.30000001192 109
          -0.25980764627 -0.14999997616 109 -0.25980758667 0.15000003576 109
          0 0.30000001192 -0.54000002146 0.25980761647 0.14999999106 -0.54000002146
          0.25980761647 -0.15000002086 -0.54000002146 -2.6226834038e-08 -0.30000001192 -0.54000002146
          -0.25980764627 -0.14999997616 -0.54000002146 -0.25980758667 0.15000003576 -0.54000002146
          0 0.30000001192 109 0.25980761647 0.14999999106 109
          0.25980761647 -0.15000002086 109 -2.6226834038e-08 -0.30000001192 109
          -0.25980764627 -0.14999997616 109 -0.25980758667 0.15000003576 109
        </DataArray>
      </Points>
      <Verts>
        <DataArray type="Int32" Name="connectivity" format="ascii" RangeMin="1e+299" RangeMax="-1e+299">
        </DataArray>
        <DataArray type="Int32" Name="offsets" format="ascii" RangeMin="1e+299" RangeMax="-1e+299">
        </DataArray>
      </Verts>
      <Lines>
        <DataArray type="Int32" Name="connectivity" format="ascii" RangeMin="1e+299" RangeMax="-1e+299">
        </DataArray>
        <DataArray type="Int32" Name="offsets" format="ascii" RangeMin="1e+299" RangeMax="-1e+299">
        </DataArray>
      </Lines>
      <Strips>
        <DataArray type="Int32" Name="connectivity" format="ascii" RangeMin="1e+299" RangeMax="-1e+299">
        </DataArray>
        <DataArray type="Int32" Name="offsets" format="ascii" RangeMin="1e+299" RangeMax="-1e+299">
        </DataArray>
      </Strips>
      <Polys>
        <DataArray type="Int32" Name="connectivity" format="ascii" RangeMin="0" RangeMax="5">
          5 3 1 5 4 3
          5 1 0 3 2 1
        </DataArray>
        <DataArray type="Int32" Name="offsets" format="ascii" RangeMin="3" RangeMax="12">
          3 6 9 12
        </DataArray>
      </Polys>
    </Piece>
  </PolyData>
</VTKFile>
