<VTKFile type="PolyData" version="0.1" byte_order="LittleEndian">
  <PolyData>
    <Piece NumberOfPoints="307" NumberOfVerts="0" NumberOfLines="0" NumberOfStrips="36" NumberOfPolys="0">
      <PointData Normals="Normals">
        <DataArray type="Float32" Name="Normals" NumberOfComponents="3" format="ascii" RangeMin="0.99999938301" RangeMax="1.0000005866">
          0.99903798103 -0.043842300773 -1.7725300117e-09 0.95364999771 -0.30091899633 -2.7756300369e-08
          0.84327197075 -0.53748697042 -7.865470053e-08 0.79335397482 -0.60876101255 -7.3835899173e-08
          -0.79335302114 -0.60876101255 -8.61419025e-08 -0.8871139884 -0.46155101061 -6.4247799969e-08
          -0.97634398937 -0.2162220031 -1.726199983e-08 -0.99903798103 0.043841898441 3.5450200553e-09
          -0.95364999771 0.30091899633 2.9528800738e-08 -0.84327101707 0.5374879837 6.519120177e-08
          -0.79335302114 0.60876202583 7.3835998649e-08 0.79335397482 0.60876101255 7.3835899173e-08
          0.8871139884 0.46155101061 4.5587501774e-08 0.97634398937 0.2162220031 1.0292700026e-08
          0.99903899431 0.043841499835 1.7724900436e-09 0.97634398937 -0.2162220031 -1.0292700026e-08
          0.8871139884 -0.46155101061 -5.9051000534e-08 0.79335397482 -0.60876101255 -8.61419025e-08
          -0.79335302114 -0.60876101255 -7.3835899173e-08 -0.84327197075 -0.5374879837 -7.8654800006e-08
          -0.95364999771 -0.30091801286 -3.4725498921e-08 -0.99903798103 -0.043841898441 -3.5450200553e-09
          -0.97634398937 0.2162220031 1.726199983e-08 -0.88711297512 0.46155101061 5.0784301209e-08
          -0.79335302114 0.60876202583 7.3835998649e-08 0.79335397482 0.60876101255 7.3835899173e-08
          0.84327197075 0.53748697042 6.519120177e-08 0.95364999771 0.30091899633 2.2559499158e-08
          -1 3.9307199273e-08 4.7675198614e-15 1 -1.1792099741e-07 -1.4302600242e-14
          1 -1.1792099741e-07 -1.4302600242e-14 -1 3.9307199273e-08 4.7675198614e-15
          3.2628099689e-06 4.2955500135e-07 -1 1.893709964e-06 2.4931100029e-07 -1
          -1 3.9307199273e-08 4.7675198614e-15 1 -1.1792099741e-07 -1.4302600242e-14
          1 -1.1792099741e-07 -1.4302500292e-14 -8.4447697191e-07 -1.1117799659e-07 -1
          -1 3.9307199273e-08 4.7675198614e-15 1.2091600183e-06 1.5918899976e-07 -1
          3.2627999644e-06 4.2955500135e-07 -1 -2.8194600077e-07 -0.99918800592 0.040293801576
          9.883609664e-07 -0.91967397928 0.39268401265 1.6513399714e-06 -0.69708901644 0.71698397398
          8.7481600985e-07 -0.40307301283 0.91516798735 3.4902001289e-07 -0.3119289875 0.95010501146
          4.6054699965e-07 0.19912800193 0.97997397184 1.4000099782e-06 0.51723700762 0.85584199429
          1.5374599798e-06 0.79616302252 0.60508197546 3.5607999394e-07 0.95706498623 0.28987398744
          -4.8958899157e-08 0.99918800592 -0.040294200182 1.2178500128e-06 0.91967397928 -0.39268401265
          1.7646400465e-06 0.69708901644 -0.71698498726 8.7308501406e-07 0.40307301283 -0.91516798735
          1.2392899862e-07 0.10514699668 -0.99445700645 3.343160131e-07 -0.19912800193 -0.97997397184
          1.2150600242e-06 -0.51723700762 -0.85584199429 1.3081599946e-06 -0.79616397619 -0.60508102179
          6.9791703083e-08 -0.95706498623 -0.28987398744 -0.0022215698846 -0.99785202742 -0.065477401018
          0.0035578899551 -0.96813499928 0.25040200353 0.023527599871 -0.80195099115 0.59692597389
          0.022846799344 -0.50745898485 0.8613730073 0.0098277097568 -0.29471999407 0.95553302765
          0 0 1 0.016916999593 0.4085919857 0.91256099939
          0.031119599938 0.72162497044 0.69158399105 0.018797200173 0.92689102888 0.37485998869
          -0.0022212699987 0.99785202742 0.065477199852 0.0035581600387 0.96813499928 -0.25040200353
          0.023527799174 0.80195099115 -0.59692597389 0.022846700624 0.50745797157 -0.8613730073
          0.0066171102226 0.19843900204 -0.98009097576 0.0019372899551 -0.093982301652 -0.99557197094
          0.01691680029 -0.40859100223 -0.91256099939 0.031119300053 -0.72162497044 -0.69158399105
          0.018796799704 -0.92689102888 -0.37485900521 -1 2.1612800438e-08 6.3037401965e-09
          0.0022210199386 -0.99785202742 -0.065477401018 -0.0035576799419 -0.96813499928 0.25040200353
          -0.023524900898 -0.80195200443 0.59692597389 -0.022844299674 -0.50745898485 0.8613730073
          -0.0098266303539 -0.29471999407 0.95553302765 1.4879100263e-07 0 1
          -0.016914999112 0.4085919857 0.91255998611 -0.031115800142 0.72162598372 0.69158399105
          -0.018794599921 0.92689102888 0.37485900521 0.0022211798932 0.99785202742 0.065476998687
          -0.0035574899521 0.96813499928 -0.25040200353 -0.023524900898 0.80195200443 -0.59692597389
          -0.022844199091 0.50745898485 -0.8613730073 -0.0066164201126 0.19843900204 -0.98009097576
          -0.0019371300004 -0.09398239851 -0.99557197094 -0.016915200278 -0.4085919857 -0.91255998611
          -0.031115900725 -0.72162598372 -0.69158399105 -0.018794799224 -0.92689102888 -0.37485900521
          1 -3.0438098975e-07 9.1404203317e-08 0 0 1
          0 0 1 0 0 1
          -0.99985802174 0 0.016831099987 1.4879100263e-07 0 1
          1.4879100263e-07 0 1 1.4879100263e-07 -2.0840300378e-14 1
          0.99985802174 0 0.01683129929 -0.90949302912 -0.41571998596 1.2345799405e-07
          -0.89217501879 -0.42657199502 -0.14853000641 -0.8844730258 -0.42778998613 -0.18628700078
          -0.93278801441 -0.34399101138 -0.10759299994 -0.96269398928 -0.26662901044 -0.046134099364
          0.00290924008 0.14113299549 0.98998600245 -0.99078899622 0.13460700214 -0.014793599956
          -0.93278801441 0.34399101138 -0.10759299994 -0.8844730258 0.42778998613 -0.18628700078
          -0.89217501879 0.42657199502 -0.14853000641 -0.90949302912 0.41571998596 0
          -0.89217400551 0.42657199502 0.14853000641 -0.8844730258 0.42778998613 0.18628700078
          -0.93278801441 0.34399101138 0.10759200156 -0.99078899622 0.13460700214 0.01479330007
          -0.99078899622 -0.13460700214 0.014793599956 -0.93278801441 -0.34399101138 0.10759299994
          -0.8844730258 -0.42778998613 0.18628700078 -0.89217400551 -0.42657199502 0.14853000641
          0.90949302912 -0.41571998596 -3.105149915e-07 0.89217400551 -0.42657199502 -0.14853000641
          0.8844730258 -0.42779099941 -0.18628700078 0.93278801441 -0.34399101138 -0.10759299994
          0.96269398928 -0.26662999392 -0.046133998781 -0.0029087599833 0.14113299549 0.98998600245
          0.99078899622 0.13460700214 -0.01479330007 0.93278801441 0.34399101138 -0.10759299994
          0.8844730258 0.42778998613 -0.18628700078 0.89217501879 0.42657199502 -0.14853000641
          0.90949302912 0.41571998596 1.9453899824e-07 0.89217400551 0.42657199502 0.14853000641
          0.8844730258 0.42778998613 0.18628700078 0.93278801441 0.34399101138 0.10759299994
          0.99078899622 0.13460700214 0.014793399721 0.99078899622 -0.13460700214 0.014793500304
          0.93278801441 -0.34399101138 0.10759299994 0.8844730258 -0.42779099941 0.18628700078
          0.89217400551 -0.42657199502 0.14853000641 -0.99984699488 -0.017466599122 0
          -0.99254399538 -0.12188400328 0 -0.97436702251 -0.22496600449 0
          -0.9455140233 -0.32558199763 0 -0.90630197525 -0.42263099551 0
          -0.85715997219 -0.51504999399 0 -0.79862701893 -0.60182601213 0
          -0.7313439846 -0.6820089817 0 -0.65604799986 -0.75471901894 0
          -0.57356500626 -0.81915998459 0 -0.48479700089 -0.87462699413 0
          -0.39071801305 -0.92050999403 0 -0.29235801101 -0.95630902052 0
          -0.19079500437 -0.98163002729 0 -0.087141096592 -0.99619597197 0
          0.017466299236 -0.99984699488 0 0.12188299745 -0.99254399538 0
          0.22496600449 -0.97436702251 0 0.32558199763 -0.9455140233 0
          0.42263200879 -0.90630197525 0 0.51504999399 -0.85715997219 0
          0.60182601213 -0.79862701893 0 0.6820089817 -0.7313439846 0
          0.75471901894 -0.65604799986 0 0.81915998459 -0.57356500626 0
          0.87462598085 -0.48479801416 0 0.92051100731 -0.39071801305 0
          0.95630902052 -0.29235699773 0 0.98163002729 -0.19079500437 0
          0.99619597197 -0.087141796947 0 0.99984699488 0.017466599122 0
          0.99254399538 0.12188400328 0 0.97436702251 0.22496500611 0
          0.9455140233 0.32558199763 0 0.90630197525 0.42263200879 0
          0.85715997219 0.51505100727 0 0.79862701893 0.60182702541 0
          0.7313439846 0.6820089817 0 0.65604799986 0.75471901894 0
          0.57356500626 0.81915998459 0 0.48479700089 0.87462699413 0
          0.39071801305 0.92051100731 0 0.29235801101 0.95630902052 0
          0.19079500437 0.98163002729 1.7780399549e-12 0.087141096592 0.99619597197 2.3728801042e-12
          -0.01746699959 0.99984699488 0 -0.12188299745 0.99254399538 0
          -0.22496500611 0.97436702251 0 -0.32558301091 0.9455140233 0
          -0.42263099551 0.90630197525 0 -0.51504999399 0.85715997219 0
          -0.60182702541 0.79862701893 0 -0.6820089817 0.73134297132 0
          -0.75471901894 0.65604799986 0 -0.81915998459 0.57356500626 0
          -0.87462699413 0.48479700089 0 -0.92051100731 0.39071801305 0
          -0.95630902052 0.29235801101 0 -0.98163002729 0.19079500437 0
          -0.99619597197 0.087141498923 0 -0.99984699488 0.017466699705 0
          -0.99619597197 -0.087141796947 0 -0.98163002729 -0.19079600275 0
          -0.95630902052 -0.29235899448 0 -0.92050999403 -0.39071801305 0
          -0.87462699413 -0.48479700089 0 -0.81915998459 -0.57356500626 0
          -0.75471901894 -0.65604901314 0 -0.68200802803 -0.7313439846 0
          -0.60182702541 -0.79862701893 0 -0.51504999399 -0.85715997219 0
          -0.42263099551 -0.90630197525 0 -0.32558199763 -0.9455140233 0
          -0.22496500611 -0.97436702251 0 -0.12188299745 -0.99254399538 0
          -0.017466299236 -0.99984699488 0 0.087141096592 -0.99619597197 0
          0.19079600275 -0.98163002729 0 0.29235899448 -0.95630902052 0
          0.39071801305 -0.92050999403 0 0.48479801416 -0.87462598085 0
          0.57356500626 -0.81915998459 0 0.65604799986 -0.75471901894 0
          0.7313439846 -0.68200802803 0 0.79862701893 -0.60182601213 0
          0.85715997219 -0.51504999399 0 0.90630197525 -0.42263099551 0
          0.9455140233 -0.32558101416 0 0.97436702251 -0.22496399283 0
          0.99254399538 -0.12188400328 0 0.99984699488 -0.017466599122 0
          0.99619597197 0.087141796947 0 0.98163002729 0.19079500437 0
          0.95630902052 0.29235801101 0 0.92050999403 0.39071801305 0
          0.87462598085 0.48479801416 0 0.81915998459 0.57356500626 0
          0.75471901894 0.65604901314 0 0.6820089817 0.7313439846 0
          0.60182601213 0.79862701893 0 0.51504999399 0.85715997219 0
          0.42263099551 0.90630197525 0 0.32558101416 0.9455140233 0
          0.22496500611 0.97436702251 0 0.12188299745 0.99254399538 2.3728801042e-12
          0.01746599935 0.99984699488 5.9483998673e-13 -0.087141498923 0.99619597197 0
          -0.19079500437 0.98163002729 0 -0.29235899448 0.95630902052 0
          -0.39071899652 0.92050999403 0 -0.48479700089 0.87462699413 0
          -0.57356500626 0.81915998459 0 -0.65604901314 0.75471800566 0
          -0.7313439846 0.68200802803 0 -0.79862701893 0.60182702541 0
          -0.85715997219 0.51504999399 0 -0.90630197525 0.42263099551 0
          -0.9455140233 0.32558101416 0 -0.97436702251 0.22496500611 0
          -0.99254399538 0.12188299745 0 -0.99984699488 -0.017466299236 0
          -0.99254399538 -0.12188299745 0 -0.97436702251 -0.22496600449 0
          -0.9455140233 -0.32558199763 0 -0.90630197525 -0.42263099551 0
          -0.89100700617 -0.45399001241 0 -0.89100700617 0.45399001241 0
          -0.92050999403 0.39071801305 0 -0.95630902052 0.29235699773 0
          -0.98163002729 0.19079500437 0 -0.99619597197 0.0871412009 0
          -0.99984699488 0.017466399819 0 -0.99619597197 -0.087141096592 0
          -0.98163002729 -0.19079600275 0 -0.95630902052 -0.29235899448 0
          -0.92050999403 -0.39071801305 0 -0.89100700617 -0.45399001241 0
          -0.89100700617 0.45399001241 0 -0.90630197525 0.42263099551 0
          -0.9455140233 0.32558101416 0 -0.97436702251 0.22496399283 0
          -0.99254399538 0.12188299745 0 0.99922299385 0.03940070048 0
          0.98963099718 0.14363199472 0 0.96919602156 0.24628999829 0
          0.93814200163 0.34624901414 0 0.89681100845 0.44241499901 0
          0.88083100319 0.47343099117 0 0.90075302124 -0.43433099985 0
          0.92886197567 -0.37042701244 0 0.96249401569 -0.27130401134 0
          0.9855800271 -0.1692110002 0 0.99786800146 -0.065262496471 0
          0.99998998642 0.0044760201126 0 0.99404400587 0.10897900164 0
          0.97720700502 0.21228800714 0 0.9496639967 0.31327098608 0
          0.91171598434 0.4108209908 0 0.88083100319 0.47343099117 0
          0.90075302124 -0.43433099985 0 0.91535699368 -0.4026440084 0
          0.95243000984 -0.30475699902 0 0.97906798124 -0.20353099704 0
          0.99497997761 -0.10007599741 0
        </DataArray>
      </PointData>
      <CellData>
      </CellData>
      <Points>
        <DataArray type="Float32" Name="Points" NumberOfComponents="3" format="ascii" RangeMin="0.21854914126" RangeMax="109.38635834">
          0.27427399158 0.0055576600134 0.013396699913 0.26513999701 -0.063821598887 0.013396699913
          0.23836100101 -0.12847299874 0.013396699913 0.19576099515 -0.18399000168 0.013396699913
          -0.18333399296 -0.18399000168 0.013396699913 -0.22593399882 -0.12847299874 0.013396699913
          -0.25271400809 -0.063821598887 0.013396699913 -0.26184800267 0.0055576800369 0.013396699913
          -0.25271400809 0.074936896563 0.013396699913 -0.22593399882 0.13958799839 0.013396699913
          -0.18333399296 0.19510500133 0.013396699913 0.19576099515 0.19510500133 0.013396699913
          0.23836100101 0.13958799839 0.013396699913 0.26513999701 0.074936896563 0.013396699913
          0.27427399158 0.0055576800369 -0.35517400503 0.26513999701 -0.063821598887 -0.35517400503
          0.23836100101 -0.12847299874 -0.35517400503 0.19576099515 -0.18399000168 -0.35517400503
          -0.18333399296 -0.18399000168 -0.35517400503 -0.22593399882 -0.12847299874 -0.35517400503
          -0.25271400809 -0.063821598887 -0.35517400503 -0.26184800267 0.0055577098392 -0.35517400503
          -0.25271400809 0.074937000871 -0.35517400503 -0.22593399882 0.13958799839 -0.35517400503
          -0.18333399296 0.19510500133 -0.35517400503 0.19576099515 0.19510500133 -0.35517400503
          0.23836100101 0.13958799839 -0.35517400503 0.26513999701 0.074936896563 -0.35517400503
          0.19576099515 -0.18399000168 0.013396699913 -0.18333399296 -0.18399000168 0.013396699913
          -0.18333399296 0.19510500133 0.013396699913 0.19576099515 0.19510500133 0.013396699913
          0.27427399158 0.0055576800369 -0.35517400503 0.26513999701 -0.063821598887 -0.35517400503
          0.19576099515 -0.18399000168 -0.35517400503 -0.18333399296 -0.18399000168 -0.35517400503
          -0.18333399296 0.19510500133 -0.35517400503 0.19576099515 0.19510500133 -0.35517400503
          0.19576099515 0.19510500133 -0.35517400503 0.23836100101 0.13958799839 -0.35517400503
          0.26513999701 0.074936896563 -0.35517400503 0.0047882199287 -0.17295600474 -0.37889000773
          0.0047882199287 -0.16198700666 -0.32277700305 0.0047882301733 -0.13040299714 -0.27343198657
          0.0047882301733 -0.082013398409 -0.23680700362 0.0047882399522 -0.02265509963 -0.21731899679
          0.0047882501967 0.040512699634 -0.21731899679 0.0047882599756 0.099871002138 -0.23680700362
          0.0047882702202 0.14825999737 -0.27343198657 0.004788279999 0.1798440069 -0.32277700305
          0.004788279999 0.19081300497 -0.37889000773 0.004788279999 0.1798440069 -0.4350039959
          0.0047882599756 0.14825999737 -0.48434901237 0.0047882702202 0.099871002138 -0.52097398043
          0.0047882599756 0.040512599051 -0.54046201706 0.0047882399522 -0.022655200213 -0.54046201706
          0.0047882399522 -0.082013502717 -0.52097398043 0.0047882199287 -0.13040299714 -0.48434901237
          0.0047882199287 -0.16198700666 -0.4350039959 -0.21605700254 -0.17110200226 -0.37889000773
          -0.22486799955 -0.16429199278 -0.32277700305 -0.24812200665 -0.14083699882 -0.27343198657
          -0.27625900507 -0.095408700407 -0.23680700362 -0.29562699795 -0.028847699985 -0.21731899679
          -0.29562699795 0.046705301851 -0.21731899679 -0.27625900507 0.11326599866 -0.23680700362
          -0.24812200665 0.15869499743 -0.27343198657 -0.22486799955 0.18215000629 -0.32277700305
          -0.21605700254 0.18896000087 -0.37889000773 -0.22486799955 0.18215000629 -0.4350039959
          -0.24812200665 0.15869499743 -0.48434901237 -0.27625900507 0.11326599866 -0.52097398043
          -0.29562699795 0.046705201268 -0.54046201706 -0.29562699795 -0.028847800568 -0.54046201706
          -0.27625900507 -0.095408797264 -0.52097398043 -0.24812200665 -0.14083699882 -0.48434901237
          -0.22486799955 -0.16429199278 -0.4350039959 -0.29834699631 0.0089288102463 -0.37889000773
          0.22566300631 -0.17110200226 -0.37889000773 0.23447400331 -0.16429199278 -0.32277700305
          0.25772801042 -0.14083699882 -0.27343198657 0.28586500883 -0.095408797264 -0.23680700362
          0.30523398519 -0.028847699985 -0.21731899679 0.30523398519 0.046705301851 -0.21731899679
          0.28586500883 0.11326599866 -0.23680700362 0.25772801042 0.15869499743 -0.27343198657
          0.23447400331 0.18215000629 -0.32277700305 0.22566300631 0.18896000087 -0.37889000773
          0.23447400331 0.18214899302 -0.4350039959 0.25772801042 0.15869499743 -0.48434901237
          0.28586500883 0.11326599866 -0.52097398043 0.30523398519 0.046705201268 -0.54046201706
          0.30523398519 -0.028847800568 -0.54046201706 0.28586500883 -0.095408901572 -0.52097398043
          0.25772801042 -0.1408379972 -0.48434901237 0.23447400331 -0.16429199278 -0.4350039959
          0.30795401335 0.008928719908 -0.37889000773 0.0047882399522 -0.02265509963 -0.21731899679
          -0.29562699795 -0.028847699985 -0.21731899679 0.0047882399522 -0.02265509963 -0.21731899679
          -0.29562699795 -0.028847699985 -0.21731899679 0.0047882399522 -0.02265509963 -0.21731899679
          0.30523398519 -0.028847699985 -0.21731899679 0.0047882399522 -0.02265509963 -0.21731899679
          0.30523398519 -0.028847699985 -0.21731899679 -0.21605700254 -0.17110200226 -0.37889000773
          -0.22486799955 -0.16429199278 -0.32277700305 -0.24812200665 -0.14083699882 -0.27343198657
          -0.27625900507 -0.095408700407 -0.23680700362 -0.29562699795 -0.028847699985 -0.21731899679
          -0.29562699795 0.046705301851 -0.21731899679 -0.29562699795 0.046705301851 -0.21731899679
          -0.27625900507 0.11326599866 -0.23680700362 -0.24812200665 0.15869499743 -0.27343198657
          -0.22486799955 0.18215000629 -0.32277700305 -0.21605700254 0.18896000087 -0.37889000773
          -0.22486799955 0.18215000629 -0.4350039959 -0.24812200665 0.15869499743 -0.48434901237
          -0.27625900507 0.11326599866 -0.52097398043 -0.29562699795 0.046705201268 -0.54046201706
          -0.29562699795 -0.028847800568 -0.54046201706 -0.27625900507 -0.095408797264 -0.52097398043
          -0.24812200665 -0.14083699882 -0.48434901237 -0.22486799955 -0.16429199278 -0.4350039959
          0.22566300631 -0.17110200226 -0.37889000773 0.23447400331 -0.16429199278 -0.32277700305
          0.25772801042 -0.14083699882 -0.27343198657 0.28586500883 -0.095408797264 -0.23680700362
          0.30523398519 -0.028847699985 -0.21731899679 0.30523398519 0.046705301851 -0.21731899679
          0.30523398519 0.046705301851 -0.21731899679 0.28586500883 0.11326599866 -0.23680700362
          0.25772801042 0.15869499743 -0.27343198657 0.23447400331 0.18215000629 -0.32277700305
          0.22566300631 0.18896000087 -0.37889000773 0.23447400331 0.18214899302 -0.4350039959
          0.25772801042 0.15869499743 -0.48434901237 0.28586500883 0.11326599866 -0.52097398043
          0.30523398519 0.046705201268 -0.54046201706 0.30523398519 -0.028847800568 -0.54046201706
          0.28586500883 -0.095408901572 -0.52097398043 0.25772801042 -0.1408379972 -0.48434901237
          0.23447400331 -0.16429199278 -0.4350039959 -0.27281099558 0.0010910800193 0
          -0.27129900455 -0.027758799493 0 -0.266779989 -0.056292500347 0
          -0.25930300355 -0.084197603166 0 -0.24895000458 -0.11116799712 0
          -0.23583400249 -0.13690899312 0 -0.2201000005 -0.1611379981 0
          -0.20191900432 -0.18358899653 0 -0.18149100244 -0.20401699841 0
          -0.15904000401 -0.22219799459 0 -0.13481099904 -0.23793199658 0
          -0.10907000303 -0.25104698539 0 -0.082099698484 -0.26140001416 0
          -0.05419459939 -0.2688780129 0 -0.025660799816 -0.27339699864 0
          0.0031890401151 -0.27490898967 0 0.032038901001 -0.27339699864 0
          0.060572698712 -0.2688780129 0 0.088477700949 -0.26140001416 0
          0.11544799805 -0.25104698539 0 0.14118899405 -0.23793199658 0
          0.16541799903 -0.22219799459 0 0.18786899745 -0.20401699841 0
          0.20829699934 -0.18358899653 0 0.22647799551 -0.1611379981 0
          0.24221199751 -0.13690899312 0 0.25532799959 -0.11116799712 0
          0.26568099856 -0.084197498858 0 0.27315801382 -0.056292399764 0
          0.27767699957 -0.027758700773 0 0.27918899059 0.0010911900317 0
          0.27767699957 0.029941000044 0 0.27315801382 0.058474801481 0
          0.26568099856 0.086379900575 0 0.25532799959 0.11335100234 0
          0.24221199751 0.13909099996 0 0.22647799551 0.16332000494 0
          0.20829699934 0.18577100337 0 0.18786899745 0.20619900525 0
          0.16541799903 0.22438000143 0 0.14118899405 0.24011400342 0
          0.11544799805 0.2532300055 0 0.088477596641 0.26358300447 0
          0.060572501272 0.27105998993 0 0.032038800418 0.27557900548 0
          0.0031889099628 0.2770909965 0 -0.025660900399 0.27557900548 0
          -0.054194699973 0.27105998993 0 -0.082099802792 0.26358300447 0
          -0.10907000303 0.2532300055 0 -0.13481099904 0.24011400342 0
          -0.15904000401 0.22438000143 0 -0.18149100244 0.20619900525 0
          -0.20191900432 0.18577100337 0 -0.2201000005 0.16332000494 0
          -0.23583400249 0.13909099996 0 -0.24895000458 0.11334999651 0
          -0.25930300355 0.086379699409 0 -0.266779989 0.058474700898 0
          -0.27129900455 0.029940899462 0 -0.27281099558 0.0010910800193 109.38600159
          -0.27129900455 -0.027758799493 109.38600159 -0.266779989 -0.056292500347 109.38600159
          -0.25930300355 -0.084197603166 109.38600159 -0.24895000458 -0.11116799712 109.38600159
          -0.23583400249 -0.13690899312 109.38600159 -0.2201000005 -0.1611379981 109.38600159
          -0.20191900432 -0.18358899653 109.38600159 -0.18149100244 -0.20401699841 109.38600159
          -0.15904000401 -0.22219799459 109.38600159 -0.13481099904 -0.23793199658 109.38600159
          -0.10907000303 -0.25104698539 109.38600159 -0.082099698484 -0.26140001416 109.38600159
          -0.05419459939 -0.2688780129 109.38600159 -0.025660799816 -0.27339699864 109.38600159
          0.0031890401151 -0.27490898967 109.38600159 0.032038901001 -0.27339699864 109.38600159
          0.060572698712 -0.2688780129 109.38600159 0.088477700949 -0.26140001416 109.38600159
          0.11544799805 -0.25104698539 109.38600159 0.14118899405 -0.23793199658 109.38600159
          0.16541799903 -0.22219799459 109.38600159 0.18786899745 -0.20401699841 109.38600159
          0.20829699934 -0.18358899653 109.38600159 0.22647799551 -0.1611379981 109.38600159
          0.24221199751 -0.13690899312 109.38600159 0.25532799959 -0.11116799712 109.38600159
          0.26568099856 -0.084197498858 109.38600159 0.27315801382 -0.056292399764 109.38600159
          0.27767699957 -0.027758700773 109.38600159 0.27918899059 0.0010911900317 109.38600159
          0.27767699957 0.029941000044 109.38600159 0.27315801382 0.058474801481 109.38600159
          0.26568099856 0.086379900575 109.38600159 0.25532799959 0.11335100234 109.38600159
          0.24221199751 0.13909099996 109.38600159 0.22647799551 0.16332000494 109.38600159
          0.20829699934 0.18577100337 109.38600159 0.18786899745 0.20619900525 109.38600159
          0.16541799903 0.22438000143 109.38600159 0.14118899405 0.24011400342 109.38600159
          0.11544799805 0.2532300055 109.38600159 0.088477596641 0.26358300447 109.38600159
          0.060572501272 0.27105998993 109.38600159 0.032038800418 0.27557900548 109.38600159
          0.0031889099628 0.2770909965 109.38600159 -0.025660900399 0.27557900548 109.38600159
          -0.054194699973 0.27105998993 109.38600159 -0.082099802792 0.26358300447 109.38600159
          -0.10907000303 0.2532300055 109.38600159 -0.13481099904 0.24011400342 109.38600159
          -0.15904000401 0.22438000143 109.38600159 -0.18149100244 0.20619900525 109.38600159
          -0.20191900432 0.18577100337 109.38600159 -0.2201000005 0.16332000494 109.38600159
          -0.23583400249 0.13909099996 109.38600159 -0.24895000458 0.11334999651 109.38600159
          -0.25930300355 0.086379699409 109.38600159 -0.266779989 0.058474700898 109.38600159
          -0.27129900455 0.029940899462 109.38600159 -0.28141000867 0.0010910800193 3.1662499905
          -0.27989798784 -0.027758799493 3.1662499905 -0.27537798882 -0.056292500347 3.1662499905
          -0.26790100336 -0.084197603166 3.1662499905 -0.25754800439 -0.11116799712 3.1662499905
          -0.24443300068 -0.13690899312 3.1662499905 -0.24443300068 0.13909099996 3.1662499905
          -0.25754800439 0.11334999651 3.1662499905 -0.26790100336 0.086379699409 3.1662499905
          -0.27537798882 0.058474700898 3.1662499905 -0.27989798784 0.029940899462 3.1662499905
          -0.28141000867 0.0010910800193 11.148099899 -0.27989798784 -0.027758799493 11.148099899
          -0.27537798882 -0.056292500347 11.148099899 -0.26790100336 -0.084197603166 11.148099899
          -0.25754800439 -0.11116799712 11.148099899 -0.24443300068 -0.13690899312 11.148099899
          -0.24443300068 0.13909099996 11.148099899 -0.25754800439 0.11334999651 11.148099899
          -0.26790100336 0.086379699409 11.148099899 -0.27537798882 0.058474700898 11.148099899
          -0.27989798784 0.029940899462 11.148099899 0.28771901131 0.0073356600478 3.1662499905
          0.28557398915 0.036145400256 3.1662499905 0.2804299891 0.064573101699 3.1662499905
          0.27234300971 0.092307403684 3.1662499905 0.26140001416 0.11904399842 3.1662499905
          0.24772299826 0.14449100196 3.1662499905 0.25377899408 -0.1314419955 3.1662499905
          0.2663269937 -0.10542000085 3.1662499905 0.27608498931 -0.078228801489 3.1662499905
          0.28294798732 -0.050166398287 3.1662499905 0.28683999181 -0.021540399641 3.1662499905
          0.28771901131 0.0073356600478 11.148099899 0.28557398915 0.036145400256 11.148099899
          0.2804299891 0.064573101699 11.148099899 0.27234300971 0.092307403684 11.148099899
          0.26140001416 0.11904399842 11.148099899 0.24772299826 0.14449100196 11.148099899
          0.25377899408 -0.1314419955 11.148099899 0.2663269937 -0.10542000085 11.148099899
          0.27608498931 -0.078228801489 11.148099899 0.28294798732 -0.050166398287 11.148099899
          0.28683999181 -0.021540399641 11.148099899
        </DataArray>
      </Points>
      <Verts>
        <DataArray type="Int32" Name="connectivity" format="ascii" RangeMin="1e+299" RangeMax="-1e+299">
        </DataArray>
        <DataArray type="Int32" Name="offsets" format="ascii" RangeMin="1e+299" RangeMax="-1e+299">
        </DataArray>
      </Verts>
      <Lines>
        <DataArray type="Int32" Name="connectivity" format="ascii" RangeMin="1e+299" RangeMax="-1e+299">
        </DataArray>
        <DataArray type="Int32" Name="offsets" format="ascii" RangeMin="1e+299" RangeMax="-1e+299">
        </DataArray>
      </Lines>
      <Strips>
        <DataArray type="Int32" Name="connectivity" format="ascii" RangeMin="0" RangeMax="306">
          14 0 15 1 16 2
          17 3 18 4 19 5
          20 6 21 7 22 8
          23 9 24 10 25 11
          26 12 27 13 14 0
          37 39 33 40 32 31
          38 28 34 29 35 30
          36 59 41 60 42 61
          43 62 44 63 45 97
          64 98 99 46 110 65
          65 46 47 84 85 65
          47 66 48 67 49 68
          50 69 51 70 52 71
          53 72 54 73 55 74
          56 75 57 76 58 59
          41 106 77 105 123 106
          107 77 108 109 100 111
          77 112 113 113 114 77
          115 116 116 117 77 118
          119 119 120 77 121 122
          77 122 123 79 41 78
          58 95 57 94 56 93
          55 92 54 91 53 90
          52 89 51 88 50 87
          49 86 48 85 47 41
          79 42 80 43 81 44
          82 45 101 102 83 103
          129 46 84 124 96 125
          126 126 96 127 128 104
          96 130 131 131 96 132
          133 133 96 134 135 135
          96 136 137 137 96 138
          139 139 96 140 141 141
          96 142 124 203 143 204
          144 205 145 206 146 207
          147 208 148 209 149 210
          150 211 151 212 152 213
          153 214 154 215 155 216
          156 217 157 218 158 219
          159 220 160 221 161 222
          162 223 163 224 164 225
          165 226 166 227 167 228
          168 229 169 230 170 231
          171 232 172 233 173 234
          174 235 175 236 176 237
          177 238 178 239 179 240
          180 241 181 242 182 243
          183 244 184 245 185 246
          186 247 187 248 188 249
          189 250 190 251 191 252
          192 253 193 254 194 255
          195 256 196 257 197 258
          198 259 199 260 200 261
          201 262 202 203 143 274
          263 275 264 276 265 277
          266 278 267 279 268 280
          269 281 270 282 271 283
          272 284 273 274 263 296