<VTKFile type="PolyData" version="0.1" byte_order="LittleEndian">
  <PolyData>
    <Piece NumberOfPoints="206" NumberOfVerts="0" NumberOfLines="0" NumberOfStrips="0" NumberOfPolys="202">
      <PointData Normals="Normals">
        <DataArray type="Float32" Name="Normals" NumberOfComponents="3" format="ascii" RangeMin="0.99946995015" RangeMax="1.0000005526">
          0.99821311235 -0.050107907504 -2.0822186197e-09 0.99903804064 -0.040655195713 -1.6436766392e-09
          0.99903798103 -0.043842300773 -1.7725300117e-09 0.95447486639 -0.29784044623 -2.7121538793e-08
          0.95364999771 -0.30091899633 -2.7756300369e-08 0.95123153925 -0.30675759912 -2.8893790471e-08
          0.84486550093 -0.53472685814 -7.7942154064e-08 0.84327197075 -0.53748697042 -7.865470053e-08
          0.84145754576 -0.54007762671 -7.8926845504e-08 0.79335397482 -0.60876101255 -7.428319293e-08
          0.79335397482 -0.60876101255 -7.3835899173e-08 -0.79516744614 -0.60617041588 -8.5869764632e-08
          -0.79335302114 -0.60876101255 -8.5694608742e-08 -0.79335302114 -0.60876101255 -8.61419025e-08
          -0.88552045822 -0.4643111527 -6.477146286e-08 -0.8871139884 -0.46155101061 -6.4247799969e-08
          -0.88953244686 -0.45571237803 -6.3174731224e-08 -0.97551912069 -0.2193005085 -1.7896757853e-08
          -0.97634398937 -0.2162220031 -1.726199983e-08 -0.97716885805 -0.20995637774 -1.6763419097e-08
          -0.99903798103 0.040654793382 3.2873133105e-09 -0.99903798103 0.043841898441 3.5450200553e-09
          -0.99821311235 0.050107520074 4.0436010096e-09 -0.95447486639 0.29784044623 2.9082929842e-08
          -0.95364999771 0.30091899633 2.9528800738e-08 -0.95123153925 0.30675759912 3.0301389842e-08
          -0.84486454725 0.53472787142 6.4667545985e-08 -0.84327101707 0.5374879837 6.519120177e-08
          -0.84145659208 0.54007863998 6.5505417979e-08 -0.79335302114 0.60876202583 7.3835998649e-08
          -0.79335302114 0.60876202583 7.3835998649e-08 0.79516839981 0.60617035627 7.3521682964e-08
          0.79335397482 0.60876101255 7.3835899173e-08 0.79335397482 0.60876101255 7.3835899173e-08
          0.88552045822 0.46431112289 4.6300051793e-08 0.8871139884 0.46155101061 4.5587501774e-08
          0.88953244686 0.45571240783 4.4750485984e-08 0.97551912069 0.2193005383 1.0738570033e-08
          0.97634398937 0.2162220031 1.0292700026e-08 0.97716891766 0.20995636284 9.9830099742e-09
          -1 3.9307199273e-08 4.7675198614e-15 1 -1.1792099741e-07 -1.4302600242e-14
          -0.99984699488 0.017466699705 0 -0.99984699488 -0.017466599122 0
          -0.99619597197 -0.087141796947 0 -0.99254399538 -0.12188400328 0
          -0.98163002729 -0.19079600275 0 -0.97436702251 -0.22496600449 0
          -0.95630902052 -0.29235899448 0 -0.9455140233 -0.32558199763 0
          -0.92050999403 -0.39071801305 0 -0.90630197525 -0.42263099551 0
          -0.87462699413 -0.48479700089 0 -0.85715997219 -0.51504999399 0
          -0.81915998459 -0.57356500626 0 -0.79862701893 -0.60182601213 0
          -0.75471901894 -0.65604901314 0 -0.7313439846 -0.6820089817 0
          -0.68200802803 -0.7313439846 0 -0.65604799986 -0.75471901894 0
          -0.60182702541 -0.79862701893 0 -0.57356500626 -0.81915998459 0
          -0.51504999399 -0.85715997219 0 -0.48479700089 -0.87462699413 0
          -0.42263099551 -0.90630197525 0 -0.39071801305 -0.92050999403 0
          -0.32558199763 -0.9455140233 0 -0.29235801101 -0.95630902052 0
          -0.22496500611 -0.97436702251 0 -0.19079500437 -0.98163002729 0
          -0.12188299745 -0.99254399538 0 -0.087141096592 -0.99619597197 0
          -0.017466299236 -0.99984699488 0 0.017466299236 -0.99984699488 0
          0.087141096592 -0.99619597197 0 0.12188299745 -0.99254399538 0
          0.19079600275 -0.98163002729 0 0.22496600449 -0.97436702251 0
          0.29235899448 -0.95630902052 0 0.32558199763 -0.9455140233 0
          0.39071801305 -0.92050999403 0 0.42263200879 -0.90630197525 0
          0.48479801416 -0.87462598085 0 0.51504999399 -0.85715997219 0
          0.57356500626 -0.81915998459 0 0.60182601213 -0.79862701893 0
          0.65604799986 -0.75471901894 0 0.6820089817 -0.7313439846 0
          0.7313439846 -0.68200802803 0 0.75471901894 -0.65604799986 0
          0.79862701893 -0.60182601213 0 0.81915998459 -0.57356500626 0
          0.85715997219 -0.51504999399 0 0.87462598085 -0.48479801416 0
          0.90630197525 -0.42263099551 0 0.92051100731 -0.39071801305 0
          0.9455140233 -0.32558101416 0 0.95630902052 -0.29235699773 0
          0.97436702251 -0.22496399283 0 0.98163002729 -0.19079500437 0
          0.99254399538 -0.12188400328 0 0.99619597197 -0.087141796947 0
          0.99984699488 -0.017466599122 0 0.99984699488 0.017466599122 0
          0.99619597197 0.087141796947 0 0.99254399538 0.12188400328 0
          0.98163002729 0.19079500437 0 0.97436702251 0.22496500611 0
          0.95630902052 0.29235801101 0 0.9455140233 0.32558199763 0
          0.92050999403 0.39071801305 0 0.90630197525 0.42263200879 0
          0.87462598085 0.48479801416 0 0.85715997219 0.51505100727 0
          0.81915998459 0.57356500626 0 0.79862701893 0.60182702541 0
          0.75471901894 0.65604901314 0 0.7313439846 0.6820089817 0
          0.6820089817 0.7313439846 0 0.65604799986 0.75471901894 0
          0.60182601213 0.79862701893 0 0.57356500626 0.81915998459 0
          0.51504999399 0.85715997219 0 0.48479700089 0.87462699413 0
          0.42263099551 0.90630197525 0 0.39071801305 0.92051100731 0
          0.32558101416 0.9455140233 0 0.29235801101 0.95630902052 0
          0.22496500611 0.97436702251 0 0.19079500437 0.98163002729 1.7780399549e-12
          0.12188299745 0.99254399538 2.3728801042e-12 0.087141096592 0.99619597197 2.3728801042e-12
          0.01746599935 0.99984699488 5.9483998673e-13 -0.01746699959 0.99984699488 0
          -0.087141498923 0.99619597197 0 -0.12188299745 0.99254399538 0
          -0.19079500437 0.98163002729 0 -0.22496500611 0.97436702251 0
          -0.29235899448 0.95630902052 0 -0.32558301091 0.9455140233 0
          -0.39071899652 0.92050999403 0 -0.42263099551 0.90630197525 0
          -0.48479700089 0.87462699413 0 -0.51504999399 0.85715997219 0
          -0.57356500626 0.81915998459 0 -0.60182702541 0.79862701893 0
          -0.65604901314 0.75471800566 0 -0.6820089817 0.73134297132 0
          -0.7313439846 0.68200802803 0 -0.75471901894 0.65604799986 0
          -0.79862701893 0.60182702541 0 -0.81915998459 0.57356500626 0
          -0.85715997219 0.51504999399 0 -0.87462699413 0.48479700089 0
          -0.90630197525 0.42263099551 0 -0.92051100731 0.39071801305 0
          -0.9455140233 0.32558101416 0 -0.95630902052 0.29235801101 0
          -0.97436702251 0.22496500611 0 -0.98163002729 0.19079500437 0
          -0.99254399538 0.12188299745 0 -0.99619597197 0.087141498923 0
          -0.99984699488 0.017466399819 0 -0.99984699488 -0.017466299236 0
          -0.99619597197 -0.087141096592 0 -0.99254399538 -0.12188299745 0
          -0.98163002729 -0.19079600275 0 -0.97436702251 -0.22496600449 0
          -0.95630902052 -0.29235899448 0 -0.9455140233 -0.32558199763 0
          -0.92050999403 -0.39071801305 0 -0.90630197525 -0.42263099551 0
          -0.89100700617 -0.45399001241 0 -0.89100700617 -0.45399001241 0
          -0.89100700617 0.45399001241 0 -0.89100700617 0.45399001241 0
          -0.90630197525 0.42263099551 0 -0.92050999403 0.39071801305 0
          -0.9455140233 0.32558101416 0 -0.95630902052 0.29235699773 0
          -0.97436702251 0.22496399283 0 -0.98163002729 0.19079500437 0
          -0.99254399538 0.12188299745 0 -0.99619597197 0.0871412009 0
          0.99998998642 0.0044760201126 0 0.99922299385 0.03940070048 0
          0.99404400587 0.10897900164 0 0.98963099718 0.14363199472 0
          0.97720700502 0.21228800714 0 0.96919602156 0.24628999829 0
          0.9496639967 0.31327098608 0 0.93814200163 0.34624901414 0
          0.91171598434 0.4108209908 0 0.89681100845 0.44241499901 0
          0.88083100319 0.47343099117 0 0.88083100319 0.47343099117 0
          0.90075302124 -0.43433099985 0 0.90075302124 -0.43433099985 0
          0.91535699368 -0.4026440084 0 0.92886197567 -0.37042701244 0
          0.95243000984 -0.30475699902 0 0.96249401569 -0.27130401134 0
          0.97906798124 -0.20353099704 0 0.9855800271 -0.1692110002 0
          0.99497997761 -0.10007599741 0 0.99786800146 -0.065262496471 0
        </DataArray>
      </PointData>
      <CellData>
      </CellData>
      <Points>
        <DataArray type="Float32" Name="Points" NumberOfComponents="3" format="ascii" RangeMin="0.25785729672" RangeMax="109.38635834">
          0.27394199371 0.0030358829536 3.4389537659e-19 0.27427399158 0.0055576609448 3.4389537659e-19
          0.27427399158 0.0055576600134 0.013396699913 0.26513999701 -0.063821598887 3.4389537659e-19
          0.26513999701 -0.063821598887 0.013396699913 0.26416665316 -0.066171526909 3.4389537659e-19
          0.23836100101 -0.12847299874 3.4389537659e-19 0.23836100101 -0.12847299874 0.013396699913
          0.23681259155 -0.13049091399 3.4389537659e-19 0.19576099515 -0.18399000168 3.4389537659e-19
          0.19576099515 -0.18399000168 0.013396699913 -0.18488240242 -0.18197208643 3.4389537659e-19
          -0.18333399296 -0.18399000168 3.4389537659e-19 -0.18333399296 -0.18399000168 0.013396699913
          -0.22593399882 -0.12847299874 3.4389537659e-19 -0.22593399882 -0.12847299874 0.013396699913
          -0.22690738738 -0.12612307072 3.4389537659e-19 -0.25271400809 -0.063821598887 3.4389537659e-19
          -0.25271400809 -0.063821598887 0.013396699913 -0.25304600596 -0.061299819499 3.4389537659e-19
          -0.26184800267 0.0055576809682 3.4389537659e-19 -0.26184800267 0.0055576800369 0.013396699913
          -0.2615160048 0.0080794589594 3.4389537659e-19 -0.25271400809 0.074936904013 3.4389537659e-19
          -0.25271400809 0.074936896563 0.013396699913 -0.25174060464 0.077286817133 3.4389537659e-19
          -0.22593399882 0.13958799839 3.4389537659e-19 -0.22593399882 0.13958799839 0.013396699913
          -0.22438558936 0.14160591364 3.4389537659e-19 -0.18333399296 0.19510500133 3.4389537659e-19
          -0.18333399296 0.19510500133 0.013396699913 0.19730940461 0.19308708608 3.4389537659e-19
          0.19576099515 0.19510500133 3.4389537659e-19 0.19576099515 0.19510500133 0.013396699913
          0.23836100101 0.13958799839 3.4389537659e-19 0.23836100101 0.13958799839 0.013396699913
          0.23933435977 0.13723808527 3.4389537659e-19 0.26513999701 0.074936896563 3.4389537659e-19
          0.26513999701 0.074936896563 0.013396699913 0.26547199488 0.0724151209 3.4389537659e-19
          0.19576099515 -0.17021076381 3.4389537659e-19 -0.18333399296 0.18132576346 3.4389537659e-19
          -0.27281099558 0.0010910800193 109.38600159 -0.27281099558 0.0010910800193 0
          -0.27129900455 -0.027758799493 109.38600159 -0.27129900455 -0.027758799493 0
          -0.266779989 -0.056292500347 109.38600159 -0.266779989 -0.056292500347 0
          -0.25930300355 -0.084197603166 109.38600159 -0.25930300355 -0.084197603166 0
          -0.24895000458 -0.11116799712 109.38600159 -0.24895000458 -0.11116799712 0
          -0.23583400249 -0.13690899312 109.38600159 -0.23583400249 -0.13690899312 0
          -0.2201000005 -0.1611379981 109.38600159 -0.2201000005 -0.1611379981 0
          -0.20191900432 -0.18358899653 109.38600159 -0.20191900432 -0.18358899653 0
          -0.18149100244 -0.20401699841 109.38600159 -0.18149100244 -0.20401699841 0
          -0.15904000401 -0.22219799459 109.38600159 -0.15904000401 -0.22219799459 0
          -0.13481099904 -0.23793199658 109.38600159 -0.13481099904 -0.23793199658 0
          -0.10907000303 -0.25104698539 109.38600159 -0.10907000303 -0.25104698539 0
          -0.082099698484 -0.26140001416 109.38600159 -0.082099698484 -0.26140001416 0
          -0.05419459939 -0.2688780129 109.38600159 -0.05419459939 -0.2688780129 0
          -0.025660799816 -0.27339699864 109.38600159 -0.025660799816 -0.27339699864 0
          0.0031890401151 -0.27490898967 109.38600159 0.0031890401151 -0.27490898967 0
          0.032038901001 -0.27339699864 109.38600159 0.032038901001 -0.27339699864 0
          0.060572698712 -0.2688780129 109.38600159 0.060572698712 -0.2688780129 0
          0.088477700949 -0.26140001416 109.38600159 0.088477700949 -0.26140001416 0
          0.11544799805 -0.25104698539 109.38600159 0.11544799805 -0.25104698539 0
          0.14118899405 -0.23793199658 109.38600159 0.14118899405 -0.23793199658 0
          0.16541799903 -0.22219799459 109.38600159 0.16541799903 -0.22219799459 0
          0.18786899745 -0.20401699841 109.38600159 0.18786899745 -0.20401699841 0
          0.20829699934 -0.18358899653 109.38600159 0.20829699934 -0.18358899653 0
          0.22647799551 -0.1611379981 109.38600159 0.22647799551 -0.1611379981 0
          0.24221199751 -0.13690899312 109.38600159 0.24221199751 -0.13690899312 0
          0.25532799959 -0.11116799712 109.38600159 0.25532799959 -0.11116799712 0
          0.26568099856 -0.084197498858 109.38600159 0.26568099856 -0.084197498858 0
          0.27315801382 -0.056292399764 109.38600159 0.27315801382 -0.056292399764 0
          0.27767699957 -0.027758700773 109.38600159 0.27767699957 -0.027758700773 0
          0.27918899059 0.0010911900317 109.38600159 0.27918899059 0.0010911900317 0
          0.27767699957 0.029941000044 109.38600159 0.27767699957 0.029941000044 0
          0.27315801382 0.058474801481 109.38600159 0.27315801382 0.058474801481 0
          0.26568099856 0.086379900575 109.38600159 0.26568099856 0.086379900575 0
          0.25532799959 0.11335100234 109.38600159 0.25532799959 0.11335100234 0
          0.24221199751 0.13909099996 109.38600159 0.24221199751 0.13909099996 0
          0.22647799551 0.16332000494 109.38600159 0.22647799551 0.16332000494 0
          0.20829699934 0.18577100337 109.38600159 0.20829699934 0.18577100337 0
          0.18786899745 0.20619900525 109.38600159 0.18786899745 0.20619900525 0
          0.16541799903 0.22438000143 109.38600159 0.16541799903 0.22438000143 0
          0.14118899405 0.24011400342 109.38600159 0.14118899405 0.24011400342 0
          0.11544799805 0.2532300055 109.38600159 0.11544799805 0.2532300055 0
          0.088477596641 0.26358300447 109.38600159 0.088477596641 0.26358300447 0
          0.060572501272 0.27105998993 109.38600159 0.060572501272 0.27105998993 0
          0.032038800418 0.27557900548 109.38600159 0.032038800418 0.27557900548 0
          0.0031889099628 0.2770909965 109.38600159 0.0031889099628 0.2770909965 0
          -0.025660900399 0.27557900548 109.38600159 -0.025660900399 0.27557900548 0
          -0.054194699973 0.27105998993 109.38600159 -0.054194699973 0.27105998993 0
          -0.082099802792 0.26358300447 109.38600159 -0.082099802792 0.26358300447 0
          -0.10907000303 0.2532300055 109.38600159 -0.10907000303 0.2532300055 0
          -0.13481099904 0.24011400342 109.38600159 -0.13481099904 0.24011400342 0
          -0.15904000401 0.22438000143 109.38600159 -0.15904000401 0.22438000143 0
          -0.18149100244 0.20619900525 109.38600159 -0.18149100244 0.20619900525 0
          -0.20191900432 0.18577100337 109.38600159 -0.20191900432 0.18577100337 0
          -0.2201000005 0.16332000494 109.38600159 -0.2201000005 0.16332000494 0
          -0.23583400249 0.13909099996 109.38600159 -0.23583400249 0.13909099996 0
          -0.24895000458 0.11334999651 109.38600159 -0.24895000458 0.11334999651 0
          -0.25930300355 0.086379699409 109.38600159 -0.25930300355 0.086379699409 0
          -0.266779989 0.058474700898 109.38600159 -0.266779989 0.058474700898 0
          -0.27129900455 0.029940899462 109.38600159 -0.27129900455 0.029940899462 0
          -0.28141000867 0.0010910800193 11.148099899 -0.28141000867 0.0010910800193 3.1662499905
          -0.27989798784 -0.027758799493 11.148099899 -0.27989798784 -0.027758799493 3.1662499905
          -0.27537798882 -0.056292500347 11.148099899 -0.27537798882 -0.056292500347 3.1662499905
          -0.26790100336 -0.084197603166 11.148099899 -0.26790100336 -0.084197603166 3.1662499905
          -0.25754800439 -0.11116799712 11.148099899 -0.25754800439 -0.11116799712 3.1662499905
          -0.24443300068 -0.13690899312 11.148099899 -0.24443300068 -0.13690899312 3.1662499905
          -0.24443300068 0.13909099996 11.148099899 -0.24443300068 0.13909099996 3.1662499905
          -0.25754800439 0.11334999651 11.148099899 -0.25754800439 0.11334999651 3.1662499905
          -0.26790100336 0.086379699409 11.148099899 -0.26790100336 0.086379699409 3.1662499905
          -0.27537798882 0.058474700898 11.148099899 -0.27537798882 0.058474700898 3.1662499905
          -0.27989798784 0.029940899462 11.148099899 -0.27989798784 0.029940899462 3.1662499905
          0.28771901131 0.0073356600478 11.148099899 0.28771901131 0.0073356600478 3.1662499905
          0.28557398915 0.036145400256 11.148099899 0.28557398915 0.036145400256 3.1662499905
          0.2804299891 0.064573101699 11.148099899 0.2804299891 0.064573101699 3.1662499905
          0.27234300971 0.092307403684 11.148099899 0.27234300971 0.092307403684 3.1662499905
          0.26140001416 0.11904399842 11.148099899 0.26140001416 0.11904399842 3.1662499905
          0.24772299826 0.14449100196 11.148099899 0.24772299826 0.14449100196 3.1662499905
          0.25377899408 -0.1314419955 11.148099899 0.25377899408 -0.1314419955 3.1662499905
          0.2663269937 -0.10542000085 11.148099899 0.2663269937 -0.10542000085 3.1662499905
          0.27608498931 -0.078228801489 11.148099899 0.27608498931 -0.078228801489 3.1662499905
          0.28294798732 -0.050166398287 11.148099899 0.28294798732 -0.050166398287 3.1662499905
          0.28683999181 -0.021540399641 11.148099899 0.28683999181 -0.021540399641 3.1662499905
        </DataArray>
      </Points>
      <Verts>
        <DataArray type="Int32" Name="connectivity" format="ascii" RangeMin="1e+299" RangeMax="-1e+299">
        </DataArray>
        <DataArray type="Int32" Name="offsets" format="ascii" RangeMin="1e+299" RangeMax="-1e+299">
        </DataArray>
      </Verts>
      <Lines>
        <DataArray type="Int32" Name="connectivity" format="ascii" RangeMin="1e+299" RangeMax="-1e+299">
        </DataArray>
        <DataArray type="Int32" Name="offsets" format="ascii" RangeMin="1e+299" RangeMax="-1e+299">
        </DataArray>
      </Lines>
      <Strips>
        <DataArray type="Int32" Name="connectivity" format="ascii" RangeMin="1e+299" RangeMax="-1e+299">
        </DataArray>
        <DataArray type="Int32" Name="offsets" format="ascii" RangeMin="1e+299" RangeMax="-1e+299">
        </DataArray>
      </Strips>
      <Polys>
        <DataArray type="Int32" Name="connectivity" format="ascii" RangeMin="0" RangeMax="205">
          0 1 2 3 0 2
          2 4 3 5 3 4
          6 5 4 4 7 6
          8 6 7 9 8 7
          7 10 9 11 12 13
          14 11 13 13 15 14
          16 14 15 17 16 15
          15 18 17 19 17 18
          20 19 18 18 21 20
          22 20 21 23 22 21
          21 24 23 25 23 24
          26 25 24 24 27 26
          28 26 27 29 28 27
          27 30 29 31 32 33
          34 31 33 33 35 34
          36 34 35 37 36 35
          35 38 37 39 37 38
          1 39 38 38 2 1
          32 40 10 10 33 32
          40 9 10 12 41 30
          30 13 12 41 29 30
          42 43 44 45 44 43
          44 45 46 47 46 45
          46 47 48 49 48 47
          48 49 50 51 50 49
          50 51 52 53 52 51
          52 53 54 55 54 53
          54 55 56 57 56 55
          56 57 58 59 58 57
          58 59 60 61 60 59
          60 61 62 63 62 61
          62 63 64 65 64 63
          64 65 66 67 66 65
          66 67 68 69 68 67
          68 69 70 71 70 69
          70 71 72 73 72 71
          72 73 74 75 74 73
          74 75 76 77 76 75
          76 77 78 79 78 77
          78 79 80 81 80 79
          80 81 82 83 82 81
          82 83 84 85 84 83
          84 85 86 87 86 85
          86 87 88 89 88 87
          88 89 90 91 90 89
          90 91 92 93 92 91
          92 93 94 95 94 93
          94 95 96 97 96 95
          96 97 98 99 98 97
          98 99 100 101 100 99
          100 101 102 103 102 101
          102 103 104 105 104 103
          104 105 106 107 106 105
          106 107 108 109 108 107
          108 109 110 111 110 109
          110 111 112 113 112 111
          112 113 114 115 114 113
          114 115 116 117 116 115
          116 117 118 119 118 117
          118 119 120 121 120 119
          120 121 122 123 122 121
          122 123 124 125 124 123
          124 125 126 127 126 125
          126 127 128 129 128 127
          128 129 130 131 130 129
          130 131 132 133 132 131
          132 133 134 135 134 133
          134 135 136 137 136 135
          136 137 138 139 138 137
          138 139 140 141 140 139
          140 141 142 143 142 141
          142 143 144 145 144 143
          144 145 146 147 146 145
          146 147 148 149 148 147
          148 149 150 151 150 149
          150 151 152 153 152 151
          152 153 154 155 154 153
          154 155 156 157 156 155
          156 157 158 159 158 157
          158 159 160 161 160 159
          160 161 42 43 42 161
          162 163 164 165 164 163
          164 165 166 167 166 165
          166 167 168 169 168 167
          168 169 170 171 170 169
          170 171 172 173 172 171
          174 175 176 177 176 175
          176 177 178 179 178 177
          178 179 180 181 180 179
          180 181 182 183 182 181
          182 183 162 163 162 183
          184 185 186 187 186 185
          186 187 188 189 188 187
          188 189 190 191 190 189
          190 191 192 193 192 191
          192 193 194 195 194 193
          196 197 198 199 198 197
          198 199 200 201 200 199
          200 201 202 203 202 201
          202 203 204 205 204 203
          204 205 184 185 184 205
        </DataArray>
        <DataArray type="Int32" Name="offsets" format="ascii" RangeMin="3" RangeMax="606">
          3 6 9 12 15 18
          21 24 27 30 33 36
          39 42 45 48 51 54
          57 60 63 66 69 72
          75 78 81 84 87 90
          93 96 99 102 105 108
          111 114 117 120 123 126
          129 132 135 138 141 144
          147 150 153 156 159 162
          165 168 171 174 177 180
          183 186 189 192 195 198
          201 204 207 210 213 216
          219 222 225 228 231 234
          237 240 243 246 249 252
          255 258 261 264 267 270
          273 276 279 282 285 288
          291 294 297 300 303 306
          309 312 315 318 321 324
          327 330 333 336 339 342
          345 348 351 354 357 360
          363 366 369 372 375 378
          381 384 387 390 393 396
          399 402 405 408 411 414
          417 420 423 426 429 432
          435 438 441 444 447 450
          453 456 459 462 465 468
          471 474 477 480 483 486
          489 492 495 498 501 504
          507 510 513 516 519 522
          525 528 531 534 537 540
          543 546 549 552 555 558
          561 564 567 570 573 576
          579 582 585 588 591 594
          597 600 603 606
        </DataArray>
      </Polys>
    </Piece>
  </PolyData>
</VTKFile>
