<?xml version="1.0"?>
<VTKFile type="PolyData" version="0.1" byte_order="LittleEndian" compressor="vtkZLibDataCompressor">
  <PolyData>
    <Piece NumberOfPoints="30" NumberOfVerts="0" NumberOfLines="0" NumberOfStrips="0" NumberOfPolys="60">
      <PointData Normals="Normals">
        <DataArray type="Float32" Name="Normals" NumberOfComponents="3" format="ascii" RangeMin="0.99999998191" RangeMax="1.0000000158">
          0.4338837564 0 0.90096884966 0.30680212379 0.30680215359 0.90096884966
          0 0 1 -1.8965661042e-08 0.4338837564 0.90096884966
          -0.30680215359 0.30680212379 0.90096884966 -0.4338837564 -3.7931322083e-08 0.90096884966
          -0.30680209398 -0.30680218339 0.90096884966 5.6896986678e-08 -0.4338837564 0.90096884966
          0.30680218339 -0.30680209398 0.90096884966 0.43388366699 0 -0.90096890926
          0 0 -1 0.30680209398 0.30680209398 -0.90096890926
          -1.8965659265e-08 0.43388366699 -0.90096890926 -0.30680209398 0.30680206418 -0.90096890926
          -0.43388366699 -3.7931318531e-08 -0.90096890926 5.689697602e-08 -0.43388366699 -0.90096890926
          0.97492790222 0 0.22252090275 0.68937814236 0.68937814236 0.22252090275
          0.68937814236 0.68937814236 -0.22252097726 0.5528383255 0.5528383255 -0.62348985672
          -4.2615454277e-08 0.97492790222 -0.22252097726 -3.4174938435e-08 0.78183144331 -0.62348985672
          -0.68937820196 0.68937808275 0.22252090275 -0.97492790222 -8.5230908553e-08 0.22252090275
          -0.68937808275 -0.68937820196 0.22252090275 -0.68937808275 -0.68937820196 -0.22252097726
          1.2784636283e-07 -0.97492790222 -0.22252097726 0.68937826157 -0.68937802315 0.22252090275
          0.68937826157 -0.68937802315 -0.22252097726 0.55283838511 -0.55283820629 -0.62348985672
        </DataArray>
      </PointData>
      <CellData>
      </CellData>
      <Points>
        <DataArray type="Float32" Name="Points" NumberOfComponents="3" format="ascii" RangeMin="0.27492748603" RangeMax="109.38635788">
          0.27918899059 0.0010911900317 109.38600159 0.18786899745 0.20619900525 109.38600159
          -0.25930300355 -0.084197603166 109.38600159 0.0031889099628 0.2770909965 109.38600159
          -0.20191900432 0.18577100337 109.38600159 -0.27281099558 0.0010910800193 109.38600159
          -0.20191900432 -0.18358899653 109.38600159 0.0031890401151 -0.27490898967 109.38600159
          0.18786899745 -0.20401699841 109.38600159 0.30523398519 -0.028847800568 -0.54046201706
          0.0047882399522 -0.022655200213 -0.54046201706 0.30523398519 0.046705201268 -0.54046201706
          -0.27625900507 0.11326599866 -0.52097398043 -0.29562699795 0.046705201268 -0.54046201706
          -0.29562699795 -0.028847800568 -0.54046201706 -0.27625900507 -0.095408797264 -0.52097398043
          0.28771901131 0.0073356600478 11.148099899 0.24772299826 0.14449100196 11.148099899
          0.25772801042 0.15869499743 -0.48434901237 0.28586500883 0.11326599866 -0.52097398043
          -0.22486799955 0.18215000629 -0.4350039959 -0.24812200665 0.15869499743 -0.48434901237
          -0.24443300068 0.13909099996 11.148099899 -0.28141000867 0.0010910800193 11.148099899
          -0.24443300068 -0.13690899312 11.148099899 -0.24812200665 -0.14083699882 -0.48434901237
          0.0031890401151 -0.27490898967 0 0.25377899408 -0.1314419955 11.148099899
          0.25772801042 -0.1408379972 -0.48434901237 0.28586500883 -0.095408901572 -0.52097398043
        </DataArray>
      </Points>
      <Verts>
        <DataArray type="Int32" Name="connectivity" format="ascii" RangeMin="1e+299" RangeMax="-1e+299">
        </DataArray>
        <DataArray type="Int32" Name="offsets" format="ascii" RangeMin="1e+299" RangeMax="-1e+299">
        </DataArray>
      </Verts>
      <Lines>
        <DataArray type="Int32" Name="connectivity" format="ascii" RangeMin="1e+299" RangeMax="-1e+299">
        </DataArray>
        <DataArray type="Int32" Name="offsets" format="ascii" RangeMin="1e+299" RangeMax="-1e+299">
        </DataArray>
      </Lines>
      <Strips>
        <DataArray type="Int32" Name="connectivity" format="ascii" RangeMin="1e+299" RangeMax="-1e+299">
        </DataArray>
        <DataArray type="Int32" Name="offsets" format="ascii" RangeMin="1e+299" RangeMax="-1e+299">
        </DataArray>
      </Strips>
      <Polys>
        <DataArray type="Int32" Name="connectivity" format="ascii" RangeMin="0" RangeMax="29">
          0 1 2 1 3 2
          3 4 2 4 5 2
          5 6 2 6 7 2
          7 8 2 8 0 2
          9 10 11 11 10 12
          12 10 13 13 10 14
          14 10 15 15 10 9
          0 16 17 0 17 1
          16 9 18 16 18 17
          9 19 18 9 11 19
          1 17 3 17 18 20
          18 19 21 18 21 20
          19 11 12 19 12 21
          3 17 22 3 22 4
          17 20 21 17 21 22
          20 21 12 20 12 21
          21 12 13 21 13 12
          4 22 23 4 23 5
          22 21 14 22 14 23
          21 12 14 12 13 14
          5 23 24 5 24 6
          23 14 25 23 25 24
          14 15 25 6 24 7
          24 25 26 7 24 27
          7 27 8 24 26 28
          24 28 27 26 25 29
          26 29 28 25 15 9
          25 9 29 8 27 16
          8 16 0 27 28 9
          27 9 16 28 29 9
        </DataArray>
        <DataArray type="Int32" Name="offsets" format="ascii" RangeMin="3" RangeMax="180">
          3 6 9 12 15 18
          21 24 27 30 33 36
          39 42 45 48 51 54
          57 60 63 66 69 72
          75 78 81 84 87 90
          93 96 99 102 105 108
          111 114 117 120 123 126
          129 132 135 138 141 144
          147 150 153 156 159 162
          165 168 171 174 177 180
        </DataArray>
      </Polys>
    </Piece>
  </PolyData>
</VTKFile>
