<VTKFile type="PolyData" version="0.1" byte_order="LittleEndian">
  <PolyData>
    <Piece NumberOfPoints="32" NumberOfVerts="0" NumberOfLines="0" NumberOfStrips="0" NumberOfPolys="20">
      <PointData Normals="Normals">
        <DataArray type="Float32" Name="Normals" NumberOfComponents="3" format="ascii" RangeMin="0.99999949328" RangeMax="1.0000005401">
          3.5607999394e-07 0.95706498623 0.28987398744 9.883609664e-07 -0.91967397928 0.39268401265
          0.99903798103 -0.043842300773 -1.7725300117e-09 -0.51504999399 0.85715997219 0
          -0.79335302114 -0.60876101255 -8.61419025e-08 0.8871139884 0.46155101061 4.5587501774e-08
          -0.9455140233 -0.32558199763 0 -0.89100700617 0.45399001241 0
          0.022846799344 -0.50745898485 0.8613730073 0.90075302124 -0.43433099985 0
          0.95630902052 -0.29235699773 0 0.87462598085 -0.48479801416 0
          0.88083100319 0.47343099117 0 -0.87462699413 0.48479700089 0
          -0.90630197525 -0.42263099551 0 -0.85715997219 -0.51504999399 0
          -0.9455140233 -0.32558199763 0 0.51504999399 -0.85715997219 0
          -2.8194600077e-07 -0.99918800592 0.040293801576 -0.39071801305 -0.92050999403 0
          0.96249401569 -0.27130401134 0 -0.022844299674 -0.50745898485 0.8613730073
          -0.42263099551 0.90630197525 0 -4.8958899157e-08 0.99918800592 -0.040294200182
          0.39071801305 0.92051100731 0 -0.97634398937 -0.2162220031 -1.726199983e-08
          -0.89100700617 -0.45399001241 0 0.023527599871 -0.80195099115 0.59692597389
          -0.65604799986 -0.75471901894 0 0.031119599938 0.72162497044 0.69158399105
          -0.031115800142 0.72162598372 0.69158399105 -0.023524900898 -0.80195200443 0.59692597389
        </DataArray>
      </PointData>
      <CellData>
      </CellData>
      <Points>
        <DataArray type="Float32" Name="Points" NumberOfComponents="3" format="ascii" RangeMin="0.26008295842" RangeMax="3.1792265834">
          0.004788279999 0.1798440069 -0.32277700305 0.0047882199287 -0.16198700666 -0.32277700305
          0.27427399158 0.0055576600134 0.013396699913 -0.13481099904 0.24011400342 0
          -0.18333399296 -0.18399000168 0.013396699913 0.23836100101 0.13958799839 0.013396699913
          -0.26790100336 -0.084197603166 3.1662499905 -0.24443300068 0.13909099996 3.1662499905
          -0.27625900507 -0.095408700407 -0.23680700362 0.25377899408 -0.1314419955 3.1662499905
          0.26568099856 -0.084197498858 0 0.24221199751 -0.13690899312 0
          0.24772299826 0.14449100196 3.1662499905 -0.23583400249 0.13909099996 0
          -0.25754800439 -0.11116799712 3.1662499905 -0.23583400249 -0.13690899312 0
          -0.25930300355 -0.084197603166 0 0.14118899405 -0.23793199658 0
          0.0047882199287 -0.17295600474 -0.37889000773 -0.10907000303 -0.25104698539 0
          0.27608498931 -0.078228801489 3.1662499905 0.28586500883 -0.095408797264 -0.23680700362
          -0.10907000303 0.2532300055 0 0.004788279999 0.19081300497 -0.37889000773
          0.11544799805 0.2532300055 0 -0.25271400809 -0.063821598887 0.013396699913
          -0.24443300068 -0.13690899312 3.1662499905 -0.24812200665 -0.14083699882 -0.27343198657
          -0.18149100244 -0.20401699841 0 -0.24812200665 0.15869499743 -0.27343198657
          0.25772801042 0.15869499743 -0.27343198657 0.25772801042 -0.14083699882 -0.27343198657
        </DataArray>
      </Points>
      <Verts>
        <DataArray type="Int32" Name="connectivity" format="ascii" RangeMin="1e+299" RangeMax="-1e+299">
        </DataArray>
        <DataArray type="Int32" Name="offsets" format="ascii" RangeMin="1e+299" RangeMax="-1e+299">
        </DataArray>
      </Verts>
      <Lines>
        <DataArray type="Int32" Name="connectivity" format="ascii" RangeMin="1e+299" RangeMax="-1e+299">
        </DataArray>
        <DataArray type="Int32" Name="offsets" format="ascii" RangeMin="1e+299" RangeMax="-1e+299">
        </DataArray>
      </Lines>
      <Strips>
        <DataArray type="Int32" Name="connectivity" format="ascii" RangeMin="1e+299" RangeMax="-1e+299">
        </DataArray>
        <DataArray type="Int32" Name="offsets" format="ascii" RangeMin="1e+299" RangeMax="-1e+299">
        </DataArray>
      </Strips>
      <Polys>
        <DataArray type="Int32" Name="connectivity" format="ascii" RangeMin="0" RangeMax="31">
          0 1 2 0 3 4
          0 2 5 0 4 1
          6 7 8 9 10 11
          12 5 2 6 13 7
          14 15 16 17 18 19
          12 20 21 22 23 24
          6 8 25 26 8 27
          26 27 28 7 29 8
          12 2 20 12 21 30
          9 31 21 20 2 21
        </DataArray>
        <DataArray type="Int32" Name="offsets" format="ascii" RangeMin="3" RangeMax="60">
          3 6 9 12 15 18
          21 24 27 30 33 36
          39 42 45 48 51 54
          57 60
        </DataArray>
      </Polys>
    </Piece>
  </PolyData>
</VTKFile>
