<?xml version="1.0"?>
<VTKFile type="PolyData" version="0.1" byte_order="LittleEndian" compressor="vtkZLibDataCompressor">
  <PolyData>
    <Piece NumberOfPoints="241" NumberOfVerts="0" NumberOfLines="0" NumberOfStrips="0" NumberOfPolys="464">
      <PointData Normals="Normals">
        <DataArray type="Float32" Name="Normals" NumberOfComponents="3" format="ascii" RangeMin="0.99999996084" RangeMax="1.0000000394">
          0 0 -1 1 0 -7.2852315292e-09
          0.99984657764 0 -0.017514692619 0.99937307835 0 -0.035403896123
          0.99853694439 0 -0.054074060172 0.99725812674 0 -0.074001334608
          0.99540227652 0 -0.095782645047 0.99274820089 0 -0.12021231651
          0.98892658949 0 -0.14840559661 0.98329663277 0 -0.18201027811
          0.97468340397 0 -0.22358947992 0.96076893806 0 -0.2773501277
          0.9365323782 0 -0.35058107972 0.8897716403 0 -0.45640602708
          0.78693306446 0 -0.61703842878 0.53341597319 0 -0.84585303068
          0.9238795042 0.38268345594 -7.2852315292e-09 0.92373782396 0.38262474537 -0.017514692619
          0.92330032587 0.38244354725 -0.035403896123 0.92252784967 0.38212352991 -0.054074060172
          0.92134636641 0.38163417578 -0.074001334608 0.91963177919 0.38092395663 -0.095782645047
          0.91717976332 0.37990832329 -0.12021231651 0.91364902258 0.37844583392 -0.14840561152
          0.90844762325 0.37629136443 -0.18201027811 0.90049004555 0.37299519777 -0.22358947992
          0.88763469458 0.36767035723 -0.2773501575 0.86524307728 0.35839542747 -0.35058107972
          0.82204180956 0.34050086141 -0.45640602708 0.72703135014 0.30114623904 -0.61703836918
          0.49281212687 0.20412947237 -0.84585303068 0.70710676908 0.70710676908 -7.2852315292e-09
          0.70699828863 0.70699828863 -0.017514692619 0.70666348934 0.70666348934 -0.035403892398
          0.70607221127 0.70607227087 -0.054074060172 0.7051680088 0.7051680088 -0.074001334608
          0.70385563374 0.70385575294 -0.095782637596 0.70197898149 0.7019790411 -0.12021230906
          0.69927668571 0.69927668571 -0.14840561152 0.69529569149 0.69529575109 -0.18201027811
          0.68920522928 0.68920528889 -0.22358947992 0.67936617136 0.67936623096 -0.2773501575
          0.66222834587 0.66222840548 -0.35058107972 0.62916356325 0.62916356325 -0.45640602708
          0.55644565821 0.55644571781 -0.61703836918 0.37718206644 0.37718206644 -0.84585303068
          0.38268339634 0.92387956381 -7.2852310851e-09 0.38262468576 0.92373782396 -0.017514694482
          0.38244345784 0.92330038548 -0.035403892398 0.38212350011 0.92252784967 -0.054074060172
          0.38163414598 0.92134642601 -0.074001334608 0.38092392683 0.91963177919 -0.095782645047
          0.37990829349 0.91717976332 -0.12021231651 0.37844577432 0.91364902258 -0.14840561152
          0.37629130483 0.90844762325 -0.18201029301 0.37299516797 0.90049004555 -0.22358947992
          0.36767032743 0.88763475418 -0.2773501277 0.35839539766 0.86524313688 -0.35058110952
          0.3405008316 0.82204180956 -0.45640602708 0.30114623904 0.72703135014 -0.61703842878
          0.20412945747 0.49281212687 -0.84585303068 -4.3711388287e-08 1 -7.2852315292e-09
          -4.3704684316e-08 0.99984657764 -0.017514692619 -4.3683989759e-08 0.99937307835 -0.035403896123
          -4.3647435888e-08 0.99853694439 -0.054074060172 -4.3591541043e-08 0.99725812674 -0.074001334608
          -4.3510418379e-08 0.99540227652 -0.095782645047 -4.3394408067e-08 0.99274820089 -0.12021231651
          -4.3227355917e-08 0.98892658949 -0.14840559661 -4.2981262993e-08 0.98329663277 -0.18201027811
          -4.2604767714e-08 0.97468340397 -0.22358947992 -4.1996543132e-08 0.96076893806 -0.2773501277
          -4.0937131018e-08 0.9365323782 -0.35058107972 -3.8893155363e-08 0.8897716403 -0.45640602708
          -3.4397935167e-08 0.78693306446 -0.61703842878 -2.3316353293e-08 0.53341597319 -0.84585303068
          -0.38268348575 0.9238795042 -7.2852315292e-09 -0.38262477517 0.92373782396 -0.017514692619
          -0.38244357705 0.92330032587 -0.035403892398 -0.38212358952 0.92252779007 -0.054074060172
          -0.38163420558 0.92134636641 -0.074001334608 -0.38092398643 0.91963177919 -0.095782637596
          -0.37990835309 0.91717970371 -0.12021231651 -0.37844586372 0.91364902258 -0.14840561152
          -0.37629139423 0.90844762325 -0.18201027811 -0.37299522758 0.90049004555 -0.22358946502
          -0.36767038703 0.88763469458 -0.2773501575 -0.35839548707 0.86524307728 -0.35058110952
          -0.34050089121 0.82204174995 -0.45640605688 -0.30114626884 0.72703129053 -0.61703836918
          -0.20412948728 0.49281209707 -0.84585303068 -0.70710682869 0.70710670948 -7.2852315292e-09
          -0.70699834824 0.70699822903 -0.017514692619 -0.70666354895 0.70666342974 -0.035403892398
          -0.70607227087 0.70607221127 -0.054074060172 -0.7051680088 0.7051679492 -0.074001334608
          -0.70385575294 0.70385563374 -0.095782637596 -0.7019790411 0.70197898149 -0.12021230906
          -0.69927674532 0.69927662611 -0.14840561152 -0.69529575109 0.69529569149 -0.18201027811
          -0.68920528889 0.68920522928 -0.22358947992 -0.67936623096 0.67936617136 -0.2773501575
          -0.66222840548 0.66222834587 -0.35058107972 -0.62916356325 0.62916350365 -0.45640602708
          -0.55644571781 0.55644565821 -0.61703836918 -0.37718209624 0.37718200684 -0.84585303068
          -0.92387956381 0.38268336654 -7.2852315292e-09 -0.92373782396 0.38262465596 -0.017514692619
          -0.92330038548 0.38244345784 -0.035403892398 -0.92252784967 0.38212347031 -0.054074060172
          -0.92134642601 0.38163411617 -0.074001334608 -0.9196318388 0.38092389703 -0.095782645047
          -0.91717976332 0.37990823388 -0.12021230906 -0.91364902258 0.37844574451 -0.14840561152
          -0.90844768286 0.37629124522 -0.18201027811 -0.90049004555 0.37299513817 -0.22358947992
          -0.88763475418 0.36767026782 -0.2773501575 -0.86524313688 0.35839536786 -0.35058110952
          -0.82204180956 0.340500772 -0.45640602708 -0.72703135014 0.30114617944 -0.61703842878
          -0.49281212687 0.20412942767 -0.84585303068 -1 -8.7422776573e-08 -7.2852315292e-09
          -0.99984657764 -8.7409368632e-08 -0.017514692619 -0.99937307835 -8.7367979518e-08 -0.035403896123
          -0.99853694439 -8.7294871776e-08 -0.054074060172 -0.99725812674 -8.7183082087e-08 -0.074001334608
          -0.99540227652 -8.7020836759e-08 -0.095782645047 -0.99274820089 -8.6788816134e-08 -0.12021231651
          -0.98892658949 -8.6454711834e-08 -0.14840559661 -0.98329663277 -8.5962525986e-08 -0.18201027811
          -0.97468340397 -8.5209535428e-08 -0.22358947992 -0.96076893806 -8.3993086264e-08 -0.2773501277
          -0.9365323782 -8.1874262037e-08 -0.35058107972 -0.8897716403 -7.7786310726e-08 -0.45640602708
          -0.78693306446 -6.8795870334e-08 -0.61703842878 -0.53341597319 -4.6632706585e-08 -0.84585303068
          -0.9238795042 -0.38268351555 -7.2852315292e-09 -0.92373776436 -0.38262483478 -0.017514694482
          -0.92330032587 -0.38244360685 -0.035403892398 -0.92252779007 -0.38212364912 -0.054074060172
          -0.92134636641 -0.38163426518 -0.074001334608 -0.91963171959 -0.38092407584 -0.095782645047
          -0.91717970371 -0.37990838289 -0.12021230906 -0.91364902258 -0.37844589353 -0.14840559661
          -0.90844756365 -0.37629142404 -0.18201027811 -0.90049004555 -0.37299525738 -0.22358946502
          -0.88763469458 -0.36767044663 -0.2773501277 -0.86524307728 -0.35839551687 -0.35058110952
          -0.82204174995 -0.34050095081 -0.45640605688 -0.72703129053 -0.30114629865 -0.61703836918
          -0.49281209707 -0.20412950218 -0.84585303068 -0.70710670948 -0.70710682869 -7.2852315292e-09
          -0.70699822903 -0.70699834824 -0.017514692619 -0.70666342974 -0.70666354895 -0.035403892398
          -0.70607215166 -0.70607233047 -0.054074060172 -0.7051679492 -0.70516806841 -0.074001334608
          -0.70385563374 -0.70385575294 -0.095782645047 -0.70197892189 -0.7019790411 -0.12021231651
          -0.69927662611 -0.69927674532 -0.14840561152 -0.69529563189 -0.69529575109 -0.18201027811
          -0.68920516968 -0.68920534849 -0.22358947992 -0.67936611176 -0.67936629057 -0.2773501575
          -0.66222834587 -0.66222846508 -0.35058110952 -0.62916344404 -0.62916362286 -0.45640602708
          -0.5564455986 -0.55644571781 -0.61703842878 -0.37718200684 -0.37718209624 -0.84585303068
          -0.38268330693 -0.92387956381 -7.2852315292e-09 -0.38262462616 -0.92373788357 -0.017514692619
          -0.38244342804 -0.92330038548 -0.035403892398 -0.3821234405 -0.92252784967 -0.054074060172
          -0.38163405657 -0.92134642601 -0.074001334608 -0.38092383742 -0.9196318388 -0.095782637596
          -0.37990817428 -0.91717982292 -0.12021231651 -0.37844568491 -0.91364908218 -0.14840561152
          -0.37629121542 -0.90844768286 -0.18201027811 -0.37299510837 -0.90049010515 -0.22358947992
          -0.36767023802 -0.88763475418 -0.2773501575 -0.35839533806 -0.86524313688 -0.35058110952
          -0.340500772 -0.82204180956 -0.45640602708 -0.30114614964 -0.72703135014 -0.61703836918
          -0.20412939787 -0.49281212687 -0.84585303068 1.3113417197e-07 -1 -7.2852315292e-09
          1.311140494e-07 -0.99984657764 -0.017514692619 1.3105196217e-07 -0.99937307835 -0.035403896123
          1.3094232543e-07 -0.99853694439 -0.054074060172 1.3077462313e-07 -0.99725812674 -0.074001334608
          1.3053124803e-07 -0.99540227652 -0.095782645047 1.3018320999e-07 -0.99274820089 -0.12021231651
          1.296820642e-07 -0.98892658949 -0.14840559661 1.2894378187e-07 -0.98329663277 -0.18201027811
          1.2781430314e-07 -0.97468340397 -0.22358947992 1.2598964361e-07 -0.96076893806 -0.2773501277
          1.2281140016e-07 -0.9365323782 -0.35058107972 1.1667946609e-07 -0.8897716403 -0.45640602708
          1.0319381261e-07 -0.78693306446 -0.61703842878 6.9949059878e-08 -0.53341597319 -0.84585303068
          0.38268357515 -0.9238795042 -7.2852310851e-09 0.38262486458 -0.92373776436 -0.017514692619
          0.38244366646 -0.92330026627 -0.035403896123 0.38212364912 -0.92252779007 -0.054074060172
          0.38163429499 -0.9213463068 -0.074001334608 0.38092410564 -0.91963171959 -0.095782645047
          0.3799084425 -0.91717970371 -0.12021231651 0.37844595313 -0.91364896297 -0.14840561152
          0.37629145384 -0.90844756365 -0.18201027811 0.37299534678 -0.90048998594 -0.22358947992
          0.36767047644 -0.88763469458 -0.2773501277 0.35839554667 -0.86524301767 -0.35058110952
          0.34050098062 -0.82204174995 -0.45640602708 0.30114632845 -0.72703129053 -0.61703842878
          0.20412953198 -0.49281209707 -0.84585303068 0.70710688829 -0.70710664988 -7.2852315292e-09
          0.70699840784 -0.70699816942 -0.017514692619 0.70666360855 -0.70666337013 -0.035403892398
          0.70607233047 -0.70607215166 -0.054074060172 0.70516806841 -0.7051678896 -0.074001334608
          0.70385581255 -0.70385557413 -0.095782637596 0.7019791007 -0.70197886229 -0.12021230906
          0.69927674532 -0.69927662611 -0.14840561152 0.6952958107 -0.69529563189 -0.18201027811
          0.68920534849 -0.68920511007 -0.22358947992 0.67936635017 -0.67936611176 -0.2773501277
          0.66222852468 -0.66222828627 -0.35058107972 0.62916362286 -0.62916344404 -0.45640602708
          0.55644577742 -0.5564455986 -0.61703836918 0.37718212605 -0.37718200684 -0.84585303068
          0.92387962341 -0.38268327713 -7.2852310851e-09 0.92373788357 -0.38262456656 -0.017514692619
          0.92330038548 -0.38244336843 -0.035403896123 0.92252790928 -0.3821233809 -0.054074060172
          0.92134642601 -0.38163399696 -0.074001334608 0.9196318388 -0.38092377782 -0.095782645047
          0.91717982292 -0.37990814447 -0.12021231651 0.91364908218 -0.37844565511 -0.14840561152
          0.90844768286 -0.37629115582 -0.18201027811 0.90049010515 -0.37299504876 -0.22358949482
          0.88763481379 -0.36767020822 -0.2773501277 0.86524313688 -0.35839527845 -0.35058107972
          0.82204180956 -0.3405007422 -0.45640605688 0.72703140974 -0.30114611983 -0.61703842878
          0.49281215668 -0.20412936807 -0.84585303068
        </DataArray>
      </PointData>
      <CellData>
      </CellData>
      <Points>
        <DataArray type="Float32" Name="Points" NumberOfComponents="3" format="ascii" RangeMin="0.27499999102" RangeMax="1.6500000954">
          0 0 -1.6500000954 0.27500000596 0 -7.2123796713e-08
          0.27349352837 0 -0.17247204483 0.26899057627 0 -0.34305438399
          0.26154053211 0 -0.50987815857 0.25122499466 0 -0.67111557722
          0.23815697432 0 -0.82500010729 0.22247965634 0 -0.96984577179
          0.20436482131 0 -1.1040655375 0.18401090801 0 -1.2261890173
          0.1616409272 0 -1.334878087 0.13749998808 0 -1.4289419651
          0.11185255647 0 -1.507349968 0.084979653358 0 -1.5692434311
          0.057175692171 0 -1.6139435768 0.028745304793 0 -1.6409611702
          0.25406688452 0.10523794591 -7.2123796713e-08 0.25267505646 0.10466144234 -0.17247204483
          0.24851489067 0.10293824226 -0.34305438399 0.24163195491 0.10008723289 -0.50987815857
          0.23210163414 0.096139647067 -0.67111557722 0.22002835572 0.091138735414 -0.82500010729
          0.20554441214 0.085139282048 -0.96984577179 0.18880847096 0.078207030892 -1.1040655375
          0.17000390589 0.070417925715 -1.2261890173 0.14933674037 0.061857305467 -1.334878087
          0.12703341246 0.052618965507 -1.4289419651 0.10333828628 0.042804121971 -1.507349968
          0.078510962427 0.032520305365 -1.5692434311 0.052823454142 0.02188019082 -1.6139435768
          0.026557197794 0.01100035198 -1.6409611702 0.19445435703 0.19445437193 -7.2123796713e-08
          0.19338911772 0.19338913262 -0.17247204483 0.1902050674 0.1902050674 -0.34305438399
          0.18493708968 0.18493708968 -0.50987815857 0.17764289677 0.17764289677 -0.67111557722
          0.16840240359 0.16840241849 -0.82500010729 0.15731687844 0.15731687844 -0.96984577179
          0.14450775087 0.14450775087 -1.1040655375 0.13011536002 0.13011536002 -1.2261890173
          0.11429739743 0.11429739743 -1.334878087 0.097227171063 0.097227171063 -1.4289419651
          0.079091697931 0.079091705382 -1.507349968 0.060089688748 0.060089688748 -1.5692434311
          0.040429320186 0.040429320186 -1.6139435768 0.020325999707 0.020325999707 -1.6409611702
          0.10523793846 0.25406688452 -7.2123796713e-08 0.10466142744 0.25267505646 -0.17247204483
          0.10293823481 0.24851490557 -0.34305438399 0.10008722544 0.24163195491 -0.50987815857
          0.096139632165 0.23210163414 -0.67111557722 0.091138720512 0.22002835572 -0.82500010729
          0.085139274597 0.20554441214 -0.96984577179 0.078207023442 0.18880847096 -1.1040655375
          0.070417918265 0.17000390589 -1.2261890173 0.061857301742 0.14933674037 -1.334878087
          0.052618961781 0.12703342736 -1.4289419651 0.042804118246 0.10333829373 -1.507349968
          0.03252030164 0.078510962427 -1.5692434311 0.021880188957 0.052823454142 -1.6139435768
          0.011000351049 0.026557197794 -1.6409611702 -1.2020632489e-08 0.27500000596 -7.2123796713e-08
          -1.1954782053e-08 0.27349352837 -0.17247204483 -1.1757952834e-08 0.26899057627 -0.34305438399
          -1.143230044e-08 0.26154053211 -0.50987815857 -1.0981393572e-08 0.25122499466 -0.67111557722
          -1.041017228e-08 0.23815697432 -0.82500010729 -9.7248955555e-09 0.22247965634 -0.96984577179
          -8.9330702835e-09 0.20436482131 -1.1040655375 -8.0433721905e-09 0.18401090801 -1.2261890173
          -7.0655494788e-09 0.1616409272 -1.334878087 -6.0103153565e-09 0.13749998808 -1.4289419651
          -4.889230798e-09 0.11185255647 -1.507349968 -3.7145786447e-09 0.084979653358 -1.5692434311
          -2.4992290459e-09 0.057175692171 -1.6139435768 -1.2564972396e-09 0.028745304793 -1.6409611702
          -0.10523796082 0.25406685472 -7.2123796713e-08 -0.10466144979 0.25267505646 -0.17247204483
          -0.10293825716 0.24851489067 -0.34305438399 -0.10008724034 0.24163194001 -0.50987815857
          -0.096139654517 0.23210161924 -0.67111557722 -0.091138742864 0.22002835572 -0.82500010729
          -0.085139289498 0.20554439723 -0.96984577179 -0.078207038343 0.18880847096 -1.1040655375
          -0.070417933166 0.17000390589 -1.2261890173 -0.061857312918 0.14933674037 -1.334878087
          -0.052618972957 0.12703341246 -1.4289419651 -0.042804125696 0.10333828628 -1.507349968
          -0.032520309091 0.078510962427 -1.5692434311 -0.021880192682 0.052823450416 -1.6139435768
          -0.011000352912 0.026557197794 -1.6409611702 -0.19445437193 0.19445435703 -7.2123796713e-08
          -0.19338913262 0.19338910282 -0.17247204483 -0.1902050823 0.1902050525 -0.34305438399
          -0.18493710458 0.18493707478 -0.50987815857 -0.17764291167 0.17764288187 -0.67111557722
          -0.16840241849 0.16840240359 -0.82500010729 -0.15731689334 0.15731686354 -0.96984577179
          -0.14450775087 0.14450773597 -1.1040655375 -0.13011536002 0.13011534512 -1.2261890173
          -0.11429740489 0.11429738998 -1.334878087 -0.097227178514 0.097227163613 -1.4289419651
          -0.079091705382 0.079091697931 -1.507349968 -0.060089692473 0.060089685023 -1.5692434311
          -0.040429323912 0.040429316461 -1.6139435768 -0.02032600157 0.020325997844 -1.6409611702
          -0.25406688452 0.10523792356 -7.2123796713e-08 -0.25267508626 0.10466141999 -0.17247204483
          -0.24851490557 0.1029382199 -0.34305438399 -0.24163195491 0.10008721054 -0.50987815857
          -0.23210163414 0.096139624715 -0.67111557722 -0.22002837062 0.091138713062 -0.82500010729
          -0.20554441214 0.085139267147 -0.96984577179 -0.18880847096 0.078207015991 -1.1040655375
          -0.17000390589 0.070417910814 -1.2261890173 -0.14933675528 0.061857294291 -1.334878087
          -0.12703342736 0.052618954331 -1.4289419651 -0.10333829373 0.042804114521 -1.507349968
          -0.078510962427 0.032520297915 -1.5692434311 -0.052823454142 0.021880187094 -1.6139435768
          -0.026557199657 0.011000350118 -1.6409611702 -0.27500000596 -2.4041264979e-08 -7.2123796713e-08
          -0.27349352837 -2.3909564106e-08 -0.17247204483 -0.26899057627 -2.3515905667e-08 -0.34305438399
          -0.26154053211 -2.2864600879e-08 -0.50987815857 -0.25122499466 -2.1962787145e-08 -0.67111557722
          -0.23815697432 -2.082034456e-08 -0.82500010729 -0.22247965634 -1.9449791111e-08 -0.96984577179
          -0.20436482131 -1.7866140567e-08 -1.1040655375 -0.18401090801 -1.6086744381e-08 -1.2261890173
          -0.1616409272 -1.4131098958e-08 -1.334878087 -0.13749998808 -1.2020630713e-08 -1.4289419651
          -0.11185255647 -9.778461596e-09 -1.507349968 -0.084979653358 -7.4291572894e-09 -1.5692434311
          -0.057175692171 -4.9984580919e-09 -1.6139435768 -0.028745304793 -2.5129944792e-09 -1.6409611702
          -0.25406685472 -0.10523796827 -7.2123796713e-08 -0.25267505646 -0.10466146469 -0.17247204483
          -0.24851489067 -0.10293826461 -0.34305438399 -0.24163194001 -0.10008725524 -0.50987815857
          -0.23210161924 -0.096139669418 -0.67111557722 -0.22002835572 -0.091138750315 -0.82500010729
          -0.20554439723 -0.085139304399 -0.96984577179 -0.18880845606 -0.078207045794 -1.1040655375
          -0.17000390589 -0.070417940617 -1.2261890173 -0.14933674037 -0.061857320368 -1.334878087
          -0.12703341246 -0.052618976682 -1.4289419651 -0.10333828628 -0.042804129422 -1.507349968
          -0.078510962427 -0.032520312816 -1.5692434311 -0.052823450416 -0.021880196407 -1.6139435768
          -0.026557197794 -0.011000354774 -1.6409611702 -0.19445434213 -0.19445438683 -7.2123796713e-08
          -0.19338910282 -0.19338914752 -0.17247204483 -0.1902050525 -0.1902050823 -0.34305438399
          -0.18493707478 -0.18493710458 -0.50987815857 -0.17764288187 -0.17764291167 -0.67111557722
          -0.16840238869 -0.1684024334 -0.82500010729 -0.15731686354 -0.15731689334 -0.96984577179
          -0.14450773597 -0.14450776577 -1.1040655375 -0.13011534512 -0.13011537492 -1.2261890173
          -0.11429738253 -0.11429741234 -1.334878087 -0.097227156162 -0.097227178514 -1.4289419651
          -0.079091690481 -0.079091712832 -1.507349968 -0.060089681298 -0.060089696199 -1.5692434311
          -0.040429316461 -0.040429323912 -1.6139435768 -0.020325997844 -0.02032600157 -1.6409611702
          -0.10523791611 -0.25406688452 -7.2123796713e-08 -0.10466140509 -0.25267508626 -0.17247204483
          -0.10293821245 -0.24851490557 -0.34305438399 -0.10008720309 -0.24163195491 -0.50987815857
          -0.096139617264 -0.23210164905 -0.67111557722 -0.091138705611 -0.22002837062 -0.82500010729
          -0.085139259696 -0.20554441214 -0.96984577179 -0.078207008541 -0.18880848587 -1.1040655375
          -0.070417903364 -0.17000392079 -1.2261890173 -0.061857286841 -0.14933675528 -1.334878087
          -0.052618950605 -0.12703342736 -1.4289419651 -0.04280410707 -0.10333829373 -1.507349968
          -0.032520294189 -0.078510962427 -1.5692434311 -0.021880183369 -0.052823454142 -1.6139435768
          -0.011000348255 -0.026557199657 -1.6409611702 3.6061898356e-08 -0.27500000596 -7.2123796713e-08
          3.586434616e-08 -0.27349352837 -0.17247204483 3.5273856724e-08 -0.26899057627 -0.34305438399
          3.4296899543e-08 -0.26154053211 -0.50987815857 3.2944182493e-08 -0.25122499466 -0.67111557722
          3.1230516839e-08 -0.23815697432 -0.82500010729 2.9174685778e-08 -0.22247965634 -0.96984577179
          2.6799209962e-08 -0.20436482131 -1.1040655375 2.4130116572e-08 -0.18401090801 -1.2261890173
          2.1196649769e-08 -0.1616409272 -1.334878087 1.8030945625e-08 -0.13749998808 -1.4289419651
          1.466769195e-08 -0.11185255647 -1.507349968 1.11437366e-08 -0.084979653358 -1.5692434311
          7.4976869158e-09 -0.057175692171 -1.6139435768 3.7694918298e-09 -0.028745304793 -1.6409611702
          0.10523798317 -0.25406685472 -7.2123796713e-08 0.10466147214 -0.25267505646 -0.17247204483
          0.10293827951 -0.24851489067 -0.34305438399 0.10008726269 -0.24163194001 -0.50987815857
          0.096139676869 -0.23210161924 -0.67111557722 0.091138757765 -0.22002834082 -0.82500010729
          0.08513931185 -0.20554439723 -0.96984577179 0.078207053244 -0.18880845606 -1.1040655375
          0.070417948067 -0.17000389099 -1.2261890173 0.061857327819 -0.14933674037 -1.334878087
          0.052618984133 -0.12703341246 -1.4289419651 0.042804136872 -0.10333828628 -1.507349968
          0.032520316541 -0.078510954976 -1.5692434311 0.02188019827 -0.052823450416 -1.6139435768
          0.011000355706 -0.026557195932 -1.6409611702 0.19445440173 -0.19445434213 -7.2123796713e-08
          0.19338914752 -0.19338908792 -0.17247204483 0.1902050972 -0.19020503759 -0.34305438399
          0.18493711948 -0.18493705988 -0.50987815857 0.17764292657 -0.17764286697 -0.67111557722
          0.1684024334 -0.16840238869 -0.82500010729 0.15731690824 -0.15731684864 -0.96984577179
          0.14450776577 -0.14450772107 -1.1040655375 0.13011537492 -0.13011533022 -1.2261890173
          0.11429741234 -0.11429738253 -1.334878087 0.097227185965 -0.097227156162 -1.4289419651
          0.079091712832 -0.079091690481 -1.507349968 0.060089696199 -0.060089681298 -1.5692434311
          0.040429327637 -0.040429312736 -1.6139435768 0.020326003432 -0.020325995982 -1.6409611702
          0.25406688452 -0.10523790121 -7.2123796713e-08 0.25267508626 -0.10466139764 -0.17247204483
          0.24851492047 -0.10293819755 -0.34305438399 0.24163196981 -0.10008718818 -0.50987815857
          0.23210164905 -0.096139602363 -0.67111557722 0.22002837062 -0.09113869071 -0.82500010729
          0.20554442704 -0.085139244795 -0.96984577179 0.18880848587 -0.07820700109 -1.1040655375
          0.17000392079 -0.070417895913 -1.2261890173 0.14933675528 -0.06185727939 -1.334878087
          0.12703342736 -0.052618943155 -1.4289419651 0.10333829373 -0.042804103345 -1.507349968
          0.078510969877 -0.032520294189 -1.5692434311 0.052823457867 -0.021880181506 -1.6139435768
          0.026557199657 -0.011000347324 -1.6409611702
        </DataArray>
      </Points>
      <Verts>
        <DataArray type="Int32" Name="connectivity" format="ascii" RangeMin="1e+299" RangeMax="-1e+299">
        </DataArray>
        <DataArray type="Int32" Name="offsets" format="ascii" RangeMin="1e+299" RangeMax="-1e+299">
        </DataArray>
      </Verts>
      <Lines>
        <DataArray type="Int32" Name="connectivity" format="ascii" RangeMin="1e+299" RangeMax="-1e+299">
        </DataArray>
        <DataArray type="Int32" Name="offsets" format="ascii" RangeMin="1e+299" RangeMax="-1e+299">
        </DataArray>
      </Lines>
      <Strips>
        <DataArray type="Int32" Name="connectivity" format="ascii" RangeMin="1e+299" RangeMax="-1e+299">
        </DataArray>
        <DataArray type="Int32" Name="offsets" format="ascii" RangeMin="1e+299" RangeMax="-1e+299">
        </DataArray>
      </Strips>
      <Polys>
        <DataArray type="Int32" Name="connectivity" format="ascii" RangeMin="0" RangeMax="240">
          15 0 30 30 0 45
          45 0 60 60 0 75
          75 0 90 90 0 105
          105 0 120 120 0 135
          135 0 150 150 0 165
          165 0 180 180 0 195
          195 0 210 210 0 225
          225 0 240 240 0 15
          1 2 17 1 17 16
          2 3 18 2 18 17
          3 4 19 3 19 18
          4 5 20 4 20 19
          5 6 21 5 21 20
          6 7 22 6 22 21
          7 8 23 7 23 22
          8 9 24 8 24 23
          9 10 25 9 25 24
          10 11 26 10 26 25
          11 12 27 11 27 26
          12 13 28 12 28 27
          13 14 29 13 29 28
          14 15 30 14 30 29
          16 17 32 16 32 31
          17 18 33 17 33 32
          18 19 34 18 34 33
          19 20 35 19 35 34
          20 21 36 20 36 35
          21 22 37 21 37 36
          22 23 38 22 38 37
          23 24 39 23 39 38
          24 25 40 24 40 39
          25 26 41 25 41 40
          26 27 42 26 42 41
          27 28 43 27 43 42
          28 29 44 28 44 43
          29 30 45 29 45 44
          31 32 47 31 47 46
          32 33 48 32 48 47
          33 34 49 33 49 48
          34 35 50 34 50 49
          35 36 51 35 51 50
          36 37 52 36 52 51
          37 38 53 37 53 52
          38 39 54 38 54 53
          39 40 55 39 55 54
          40 41 56 40 56 55
          41 42 57 41 57 56
          42 43 58 42 58 57
          43 44 59 43 59 58
          44 45 60 44 60 59
          46 47 62 46 62 61
          47 48 63 47 63 62
          48 49 64 48 64 63
          49 50 65 49 65 64
          50 51 66 50 66 65
          51 52 67 51 67 66
          52 53 68 52 68 67
          53 54 69 53 69 68
          54 55 70 54 70 69
          55 56 71 55 71 70
          56 57 72 56 72 71
          57 58 73 57 73 72
          58 59 74 58 74 73
          59 60 75 59 75 74
          61 62 77 61 77 76
          62 63 78 62 78 77
          63 64 79 63 79 78
          64 65 80 64 80 79
          65 66 81 65 81 80
          66 67 82 66 82 81
          67 68 83 67 83 82
          68 69 84 68 84 83
          69 70 85 69 85 84
          70 71 86 70 86 85
          71 72 87 71 87 86
          72 73 88 72 88 87
          73 74 89 73 89 88
          74 75 90 74 90 89
          76 77 92 76 92 91
          77 78 93 77 93 92
          78 79 94 78 94 93
          79 80 95 79 95 94
          80 81 96 80 96 95
          81 82 97 81 97 96
          82 83 98 82 98 97
          83 84 99 83 99 98
          84 85 100 84 100 99
          85 86 101 85 101 100
          86 87 102 86 102 101
          87 88 103 87 103 102
          88 89 104 88 104 103
          89 90 105 89 105 104
          91 92 107 91 107 106
          92 93 108 92 108 107
          93 94 109 93 109 108
          94 95 110 94 110 109
          95 96 111 95 111 110
          96 97 112 96 112 111
          97 98 113 97 113 112
          98 99 114 98 114 113
          99 100 115 99 115 114
          100 101 116 100 116 115
          101 102 117 101 117 116
          102 103 118 102 118 117
          103 104 119 103 119 118
          104 105 120 104 120 119
          106 107 122 106 122 121
          107 108 123 107 123 122
          108 109 124 108 124 123
          109 110 125 109 125 124
          110 111 126 110 126 125
          111 112 127 111 127 126
          112 113 128 112 128 127
          113 114 129 113 129 128
          114 115 130 114 130 129
          115 116 131 115 131 130
          116 117 132 116 132 131
          117 118 133 117 133 132
          118 119 134 118 134 133
          119 120 135 119 135 134
          121 122 137 121 137 136
          122 123 138 122 138 137
          123 124 139 123 139 138
          124 125 140 124 140 139
          125 126 141 125 141 140
          126 127 142 126 142 141
          127 128 143 127 143 142
          128 129 144 128 144 143
          129 130 145 129 145 144
          130 131 146 130 146 145
          131 132 147 131 147 146
          132 133 148 132 148 147
          133 134 149 133 149 148
          134 135 150 134 150 149
          136 137 152 136 152 151
          137 138 153 137 153 152
          138 139 154 138 154 153
          139 140 155 139 155 154
          140 141 156 140 156 155
          141 142 157 141 157 156
          142 143 158 142 158 157
          143 144 159 143 159 158
          144 145 160 144 160 159
          145 146 161 145 161 160
          146 147 162 146 162 161
          147 148 163 147 163 162
          148 149 164 148 164 163
          149 150 165 149 165 164
          151 152 167 151 167 166
          152 153 168 152 168 167
          153 154 169 153 169 168
          154 155 170 154 170 169
          155 156 171 155 171 170
          156 157 172 156 172 171
          157 158 173 157 173 172
          158 159 174 158 174 173
          159 160 175 159 175 174
          160 161 176 160 176 175
          161 162 177 161 177 176
          162 163 178 162 178 177