<VTKFile type="PolyData" version="0.1" byte_order="LittleEndian">
  <PolyData>
    <Piece NumberOfPoints="71" NumberOfVerts="0" NumberOfLines="0" NumberOfStrips="0" NumberOfPolys="130">
      <PointData Normals="Normals">
        <DataArray type="Float32" Name="Normals" NumberOfComponents="3" format="ascii" RangeMin="0.99999996467" RangeMax="1.000000034">
          0 -2.2265571273e-16 -1 0.77963668108 -1.3943414332e-16 -0.62623208761
          0.93456757069 -7.9217717453e-17 -0.3557857275 0.97457802296 -4.9885654704e-17 -0.22404840589
          0.98948061466 -3.2210595033e-17 -0.14466547966 0.99612522125 -1.9581803628e-17 -0.087946563959
          0.99912565947 -9.3087994461e-18 -0.041808046401 1 1.7843081127e-24 8.0137549929e-09
          0.63073933125 -0.45825892687 -0.62623208761 0.75608098507 -0.54932504892 -0.3557857573
          0.78845018148 -0.57284259796 -0.22404837608 0.8005066514 -0.58160215616 -0.14466547966
          0.8058822155 -0.58550769091 -0.08794657141 0.80830961466 -0.58727133274 -0.041808046401
          0.80901700258 -0.58778524399 8.0137549929e-09 0.2409209609 -0.74147856236 -0.62623208761
          0.28879722953 -0.88882654905 -0.3557857275 0.3011611402 -0.92687880993 -0.22404837608
          0.30576628447 -0.9410520196 -0.14466547966 0.30781957507 -0.94737136364 -0.08794657141
          0.30874678493 -0.95022499561 -0.041808046401 0.30901697278 -0.95105654001 8.0137541048e-09
          -0.24092102051 -0.74147856236 -0.62623208761 -0.28879731894 -0.88882654905 -0.3557857275
          -0.30116119981 -0.92687875032 -0.22404837608 -0.30576637387 -0.94105195999 -0.14466547966
          -0.30781963468 -0.94737136364 -0.08794657141 -0.30874687433 -0.95022493601 -0.041808046401
          -0.30901703238 -0.95105648041 8.0137549929e-09 -0.63073939085 -0.45825889707 -0.62623208761
          -0.75608104467 -0.54932498932 -0.3557857275 -0.78845024109 -0.57284253836 -0.22404837608
          -0.8005066514 -0.58160203695 -0.14466547966 -0.8058822155 -0.58550769091 -0.08794657141
          -0.80830967426 -0.58727127314 -0.041808042675 -0.80901706219 -0.58778518438 8.0137541048e-09
          -0.77963668108 6.8158009014e-08 -0.62623208761 -0.93456757069 8.170248833e-08 -0.3557857275
          -0.97457802296 8.5200326794e-08 -0.22404840589 -0.98948061466 8.6503142427e-08 -0.14466547966
          -0.99612522125 8.708403243e-08 -0.087946563959 -0.99912565947 8.7346343491e-08 -0.041808046401
          -1 8.7422776573e-08 8.0137549929e-09 -0.63073927164 0.45825901628 -0.62623208761
          -0.75608092546 0.54932516813 -0.3557857275 -0.78845012188 0.57284265757 -0.22404837608
          -0.8005065918 0.58160221577 -0.14466547966 -0.8058821559 0.58550775051 -0.08794657141
          -0.80830955505 0.58727145195 -0.041808042675 -0.80901694298 0.5877853632 8.0137541048e-09
          -0.2409209013 0.74147856236 -0.62623208761 -0.28879714012 0.88882660866 -0.3557857275
          -0.3011610508 0.92687880993 -0.22404839098 -0.30576622486 0.9410520196 -0.14466547966
          -0.30781948566 0.94737142324 -0.08794657141 -0.30874669552 0.95022499561 -0.041808046401
          -0.30901688337 0.95105654001 8.0137549929e-09 0.24092108011 0.74147856236 -0.62623208761
          0.28879737854 0.88882654905 -0.3557857275 0.30116131902 0.92687875032 -0.22404837608
          0.30576646328 0.94105195999 -0.14466547966 0.30781975389 0.94737130404 -0.08794657141
          0.30874693394 0.95022493601 -0.041808046401 0.30901712179 0.95105648041 8.0137549929e-09
          0.63073939085 0.45825886726 -0.62623208761 0.75608110428 0.54932487011 -0.3557857275
          0.78845024109 0.57284247875 -0.22404839098 0.80050671101 0.58160197735 -0.14466547966
          0.8058822751 0.5855075717 -0.087946563959 0.80830979347 0.58727115393 -0.041808046401
          0.80901706219 0.58778512478 8.0137549929e-09
        </DataArray>
      </PointData>
      <CellData>
      </CellData>
      <Points>
        <DataArray type="Float32" Name="Points" NumberOfComponents="3" format="ascii" RangeMin="0.27499999141" RangeMax="1.5">
          0 -1.0103002684e-16 -1.5 0.061193261296 -9.8496988043e-17 -1.4623918533
          0.11931803077 -9.1024906752e-17 -1.3514533043 0.17145968974 -7.8988449457e-17 -1.1727471352
          0.21500366926 -6.2991186692e-17 -0.93523466587 0.24776645005 -4.3835281818e-17 -0.65082556009
          0.26810517907 -2.2481291705e-17 -0.33378136158 0.27500000596 4.4161624654e-24 6.5567078877e-08
          0.049506384879 -0.03596849367 -1.4623918533 0.09653031081 -0.070133380592 -1.3514533043
          0.13871380687 -0.10078148544 -1.1727471352 0.17394161224 -0.12637598813 -0.93523466587
          0.20044726133 -0.14563345909 -0.65082556009 0.21690164506 -0.15758827329 -0.33378136158
          0.22247967124 -0.1616409421 6.5567078877e-08 0.018909754232 -0.058198247105 -1.4623918533
          0.036871299148 -0.1134781912 -1.3514533043 0.052983954549 -0.16306786239 -1.1727471352
          0.066439777613 -0.20448064804 -0.93523466587 0.07656403631 -0.23563988507 -0.65082556009
          0.082849048078 -0.25498318672 -0.33378136158 0.08497966826 -0.26154056191 6.5567078877e-08
          -0.01890975982 -0.058198247105 -1.4623918533 -0.036871306598 -0.1134781912 -1.3514533043
          -0.05298396945 -0.16306786239 -1.1727471352 -0.066439799964 -0.20448063314 -0.93523466587
          -0.076564051211 -0.23563988507 -0.65082556009 -0.08284907043 -0.25498315692 -0.33378136158
          -0.084979683161 -0.26154053211 6.5567078877e-08 -0.04950639233 -0.035968489945 -1.4623918533
          -0.096530325711 -0.070133373141 -1.3514533043 -0.13871382177 -0.10078147054 -1.1727471352
          -0.17394162714 -0.12637597322 -0.93523466587 -0.20044727623 -0.14563344419 -0.65082556009
          -0.21690165997 -0.15758824348 -0.33378136158 -0.22247968614 -0.1616409272 6.5567078877e-08
          -0.061193261296 5.3496846952e-09 -1.4623918533 -0.11931803077 1.0431113751e-08 -1.3514533043
          -0.17145968974 1.4989483432e-08 -1.1727471352 -0.21500366926 1.8796217915e-08 -0.93523466587
          -0.24776645005 2.1660431671e-08 -0.65082556009 -0.26810517907 2.3438499142e-08 -0.33378136158
          -0.27500000596 2.4041263202e-08 6.5567078877e-08 -0.049506381154 0.035968497396 -1.4623918533
          -0.096530303359 0.070133388042 -1.3514533043 -0.13871380687 0.10078150034 -1.1727471352
          -0.17394159734 0.12637600303 -0.93523466587 -0.20044724643 0.14563348889 -0.65082556009
          -0.21690163016 0.15758830309 -0.33378136158 -0.22247965634 0.1616409719 6.5567078877e-08
          -0.018909750506 0.05819825083 -1.4623918533 -0.036871284246 0.11347819865 -1.3514533043
          -0.052983939648 0.16306786239 -1.1727471352 -0.066439762712 0.20448064804 -0.93523466587
          -0.076564006507 0.23563989997 -0.65082556009 -0.082849025726 0.25498318672 -0.33378136158
          -0.084979645908 0.26154056191 6.5567078877e-08 0.018909763545 0.058198247105 -1.4623918533
          0.036871314049 0.1134781912 -1.3514533043 0.052983984351 0.16306784749 -1.1727471352
          0.066439814866 0.20448063314 -0.93523466587 0.076564073563 0.23563987017 -0.65082556009
          0.082849085331 0.25498315692 -0.33378136158 0.084979705513 0.26154053211 6.5567078877e-08
          0.04950639233 0.03596848622 -1.4623918533 0.096530333161 0.070133365691 -1.3514533043
          0.13871382177 0.10078145564 -1.1727471352 0.17394162714 0.12637595832 -0.93523466587
          0.20044729114 0.14563342929 -0.65082556009 0.21690167487 0.15758822858 -0.33378136158
          0.22247968614 0.16164091229 6.5567078877e-08
        </DataArray>
      </Points>
      <Verts>
        <DataArray type="Int32" Name="connectivity" format="ascii" RangeMin="1e+299" RangeMax="-1e+299">
        </DataArray>
        <DataArray type="Int32" Name="offsets" format="ascii" RangeMin="1e+299" RangeMax="-1e+299">
        </DataArray>
      </Verts>
      <Lines>
        <DataArray type="Int32" Name="connectivity" format="ascii" RangeMin="1e+299" RangeMax="-1e+299">
        </DataArray>
        <DataArray type="Int32" Name="offsets" format="ascii" RangeMin="1e+299" RangeMax="-1e+299">
        </DataArray>
      </Lines>
      <Strips>
        <DataArray type="Int32" Name="connectivity" format="ascii" RangeMin="1e+299" RangeMax="-1e+299">
        </DataArray>
        <DataArray type="Int32" Name="offsets" format="ascii" RangeMin="1e+299" RangeMax="-1e+299">
        </DataArray>
      </Strips>
      <Polys>
        <DataArray type="Int32" Name="connectivity" format="ascii" RangeMin="0" RangeMax="70">
          1 8 0 8 15 0
          15 22 0 22 29 0
          29 36 0 36 43 0
          43 50 0 50 57 0
          57 64 0 64 1 0
          1 2 9 1 9 8
          2 3 10 2 10 9
          3 4 11 3 11 10
          4 5 12 4 12 11
          5 6 13 5 13 12
          6 7 14 6 14 13
          8 9 16 8 16 15
          9 10 17 9 17 16
          10 11 18 10 18 17
          11 12 19 11 19 18
          12 13 20 12 20 19
          13 14 21 13 21 20
          15 16 23 15 23 22
          16 17 24 16 24 23
          17 18 25 17 25 24
          18 19 26 18 26 25
          19 20 27 19 27 26
          20 21 28 20 28 27
          22 23 30 22 30 29
          23 24 31 23 31 30
          24 25 32 24 32 31
          25 26 33 25 33 32
          26 27 34 26 34 33
          27 28 35 27 35 34
          29 30 37 29 37 36
          30 31 38 30 38 37
          31 32 39 31 39 38
          32 33 40 32 40 39
          33 34 41 33 41 40
          34 35 42 34 42 41
          36 37 44 36 44 43
          37 38 45 37 45 44
          38 39 46 38 46 45
          39 40 47 39 47 46
          40 41 48 40 48 47
          41 42 49 41 49 48
          43 44 51 43 51 50
          44 45 52 44 52 51
          45 46 53 45 53 52
          46 47 54 46 54 53
          47 48 55 47 55 54
          48 49 56 48 56 55
          50 51 58 50 58 57
          51 52 59 51 59 58
          52 53 60 52 60 59
          53 54 61 53 61 60
          54 55 62 54 62 61
          55 56 63 55 63 62
          57 58 65 57 65 64
          58 59 66 58 66 65
          59 60 67 59 67 66
          60 61 68 60 68 67
          61 62 69 61 69 68
          62 63 70 62 70 69
          64 65 2 64 2 1
          65 66 3 65 3 2
          66 67 4 66 4 3
          67 68 5 67 5 4
          68 69 6 68 6 5
          69 70 7 69 7 6
        </DataArray>
        <DataArray type="Int32" Name="offsets" format="ascii" RangeMin="3" RangeMax="390">
          3 6 9 12 15 18
          21 24 27 30 33 36
          39 42 45 48 51 54
          57 60 63 66 69 72
          75 78 81 84 87 90
          93 96 99 102 105 108
          111 114 117 120 123 126
          129 132 135 138 141 144
          147 150 153 156 159 162
          165 168 171 174 177 180
          183 186 189 192 195 198
          201 204 207 210 213 216
          219 222 225 228 231 234
          237 240 243 246 249 252
          255 258 261 264 267 270
          273 276 279 282 285 288
          291 294 297 300 303 306
          309 312 315 318 321 324
          327 330 333 336 339 342
          345 348 351 354 357 360
          363 366 369 372 375 378
          381 384 387 390
        </DataArray>
      </Polys>
    </Piece>
  </PolyData>
</VTKFile>
