<VTKFile type="PolyData" version="0.1" byte_order="LittleEndian">
  <PolyData>
    <Piece NumberOfPoints="26" NumberOfVerts="0" NumberOfLines="0" NumberOfStrips="0" NumberOfPolys="26">
      <PointData Normals="Normals">
        <DataArray type="Float32" Name="Normals" NumberOfComponents="3" format="ascii" RangeMin="0.99999997899" RangeMax="1.0000000236">
          1 1.7843081127e-24 8.0137549929e-09 0.63073933125 -0.45825892687 -0.62623208761
          0.78845018148 -0.57284259796 -0.22404837608 0.3011611402 -0.92687880993 -0.22404837608
          0.30901697278 -0.95105654001 8.0137541048e-09 -0.30781963468 -0.94737136364 -0.08794657141
          -0.63073939085 -0.45825889707 -0.62623208761 -0.78845024109 -0.57284253836 -0.22404837608
          -0.80901706219 -0.58778518438 8.0137541048e-09 -1 8.7422776573e-08 8.0137549929e-09
          -0.63073927164 0.45825901628 -0.62623208761 -0.78845012188 0.57284265757 -0.22404837608
          -0.80901694298 0.5877853632 8.0137541048e-09 -0.30901688337 0.95105654001 8.0137549929e-09
          0.30116131902 0.92687875032 -0.22404837608 0.30901712179 0.95105648041 8.0137549929e-09
          0.63073939085 0.45825886726 -0.62623208761 0.78845024109 0.57284247875 -0.22404839098
          0.63073939085 0.45825886726 -0.62623208761 0.63073939085 0.45825886726 -0.62623208761
          0.63073939085 0.45825886726 -0.62623208761 -0.63073939085 -0.45825889707 -0.62623208761
          0.63073939085 0.45825886726 -0.62623208761 -0.63073927164 0.45825901628 -0.62623208761
          0.28879722953 -0.88882654905 -0.3557857275 -0.30781963468 -0.94737136364 -0.08794657141
        </DataArray>
      </PointData>
      <CellData>
      </CellData>
      <Points>
        <DataArray type="Float32" Name="Points" NumberOfComponents="3" format="ascii" RangeMin="0.27500000016" RangeMax="1.4636715984">
          0.27500000596 4.4161624654e-24 6.5567078877e-08 0.049506384879 -0.03596849367 -1.4623918533
          0.13871380687 -0.10078148544 -1.1727471352 0.052983954549 -0.16306786239 -1.1727471352
          0.08497966826 -0.26154056191 6.5567078877e-08 -0.076564051211 -0.23563988507 -0.65082556009
          -0.04950639233 -0.035968489945 -1.4623918533 -0.13871382177 -0.10078147054 -1.1727471352
          -0.22247968614 -0.1616409272 6.5567078877e-08 -0.27500000596 2.4041263202e-08 6.5567078877e-08
          -0.049506381154 0.035968497396 -1.4623918533 -0.13871380687 0.10078150034 -1.1727471352
          -0.22247965634 0.1616409719 6.5567078877e-08 -0.084979645908 0.26154056191 6.5567078877e-08
          0.052983984351 0.16306784749 -1.1727471352 0.084979705513 0.26154053211 6.5567078877e-08
          0.04950639233 0.03596848622 -1.4623918533 0.13871382177 0.10078145564 -1.1727471352
          0.04950639233 0.03596848622 -1.4623918533 0.04950639233 0.03596848622 -1.4623918533
          0.04950639233 0.03596848622 -1.4623918533 -0.04950639233 -0.035968489945 -1.4623918533
          0.04950639233 0.03596848622 -1.4623918533 -0.049506381154 0.035968497396 -1.4623918533
          0.036871299148 -0.1134781912 -1.3514533043 -0.076564051211 -0.23563988507 -0.65082556009
        </DataArray>
      </Points>
      <Verts>
        <DataArray type="Int32" Name="connectivity" format="ascii" RangeMin="1e+299" RangeMax="-1e+299">
        </DataArray>
        <DataArray type="Int32" Name="offsets" format="ascii" RangeMin="1e+299" RangeMax="-1e+299">
        </DataArray>
      </Verts>
      <Lines>
        <DataArray type="Int32" Name="connectivity" format="ascii" RangeMin="1e+299" RangeMax="-1e+299">
        </DataArray>
        <DataArray type="Int32" Name="offsets" format="ascii" RangeMin="1e+299" RangeMax="-1e+299">
        </DataArray>
      </Lines>
      <Strips>
        <DataArray type="Int32" Name="connectivity" format="ascii" RangeMin="1e+299" RangeMax="-1e+299">
        </DataArray>
        <DataArray type="Int32" Name="offsets" format="ascii" RangeMin="1e+299" RangeMax="-1e+299">
        </DataArray>
      </Strips>
      <Polys>
        <DataArray type="Int32" Name="connectivity" format="ascii" RangeMin="0" RangeMax="25">
          21 10 16 20 17 2
          20 2 1 17 0 2
          1 2 3 2 0 4
          2 4 3 24 5 18
          3 4 25 19 7 6
          19 25 7 25 4 8
          25 8 7 7 8 9
          21 11 10 21 7 11
          7 9 12 7 12 11
          10 11 14 11 12 13
          11 13 14 14 13 15
          23 14 17 23 17 22
          14 15 0 14 0 17
        </DataArray>
        <DataArray type="Int32" Name="offsets" format="ascii" RangeMin="3" RangeMax="78">
          3 6 9 12 15 18
          21 24 27 30 33 36
          39 42 45 48 51 54
          57 60 63 66 69 72
          75 78
        </DataArray>
      </Polys>
    </Piece>
  </PolyData>
</VTKFile>
