<?xml version="1.0"?>
<VTKFile type="PolyData" version="0.1" byte_order="LittleEndian" compressor="vtkZLibDataCompressor">
  <PolyData>
    <Piece NumberOfPoints="34" NumberOfVerts="0" NumberOfLines="0" NumberOfStrips="0" NumberOfPolys="64">
      <PointData Normals="Normals">
        <DataArray type="Float32" Name="Normals" NumberOfComponents="3" format="ascii" RangeMin="0.99999998191" RangeMax="1.0000000158">
          0.4338837564 0 0.90096884966 0.30680212379 0.30680215359 0.90096884966
          0 0 1 -1.8965661042e-08 0.4338837564 0.90096884966
          -0.30680215359 0.30680212379 0.90096884966 -0.4338837564 -3.7931322083e-08 0.90096884966
          -0.30680209398 -0.30680218339 0.90096884966 5.6896986678e-08 -0.4338837564 0.90096884966
          0.30680218339 -0.30680209398 0.90096884966 0.43388366699 0 -0.90096890926
          0 0 -1 0.30680209398 0.30680209398 -0.90096890926
          -1.8965659265e-08 0.43388366699 -0.90096890926 -0.30680209398 0.30680206418 -0.90096890926
          -0.43388366699 -3.7931318531e-08 -0.90096890926 -0.30680206418 -0.30680212379 -0.90096890926
          5.689697602e-08 -0.43388366699 -0.90096890926 0.30680212379 -0.30680203438 -0.90096890926
          0.97492790222 0 -0.22252097726 0.68937814236 0.68937814236 -0.22252097726
          0.78183144331 0 -0.62348985672 0.5528383255 0.5528383255 -0.62348985672
          -4.2615454277e-08 0.97492790222 -0.22252097726 -3.4174938435e-08 0.78183144331 -0.62348985672
          -0.68937820196 0.68937808275 -0.22252097726 -0.5528383255 0.5528382659 -0.62348985672
          -0.97492790222 -8.5230908553e-08 -0.22252097726 -0.78183144331 -6.8349876869e-08 -0.62348985672
          -0.68937808275 -0.68937820196 -0.22252097726 -0.5528382659 -0.55283838511 -0.62348985672
          1.2784636283e-07 -0.97492790222 -0.22252097726 1.025248153e-07 -0.78183144331 -0.62348985672
          0.68937826157 -0.68937802315 -0.22252097726 0.55283838511 -0.55283820629 -0.62348985672
        </DataArray>
      </PointData>
      <CellData>
      </CellData>
      <Points>
        <DataArray type="Float32" Name="Points" NumberOfComponents="3" format="ascii" RangeMin="0.27499999102" RangeMax="1.6500000954">
          0.27500000596 0 -7.2123796713e-08 0.19445435703 0.19445437193 -7.2123796713e-08
          -0.10523796082 0.25406685472 -7.2123796713e-08 -1.2020632489e-08 0.27500000596 -7.2123796713e-08
          -0.19445437193 0.19445435703 -7.2123796713e-08 -0.27500000596 -2.4041264979e-08 -7.2123796713e-08
          -0.19445434213 -0.19445438683 -7.2123796713e-08 3.6061898356e-08 -0.27500000596 -7.2123796713e-08
          0.19445440173 -0.19445434213 -7.2123796713e-08 0.1616409272 0 -1.334878087
          0 0 -1.6500000954 0.11429739743 0.11429739743 -1.334878087
          -7.0655494788e-09 0.1616409272 -1.334878087 -0.11429740489 0.11429738998 -1.334878087
          -0.1616409272 -1.4131098958e-08 -1.334878087 -0.11429738253 -0.11429741234 -1.334878087
          2.1196649769e-08 -0.1616409272 -1.334878087 0.11429741234 -0.11429738253 -1.334878087
          0.26899057627 0 -0.34305438399 0.1902050674 0.1902050674 -0.34305438399
          0.22247965634 0 -0.96984577179 0.15731687844 0.15731687844 -0.96984577179
          -1.1757952834e-08 0.26899057627 -0.34305438399 -9.7248955555e-09 0.22247965634 -0.96984577179
          -0.1902050823 0.1902050525 -0.34305438399 -0.15731689334 0.15731686354 -0.96984577179
          -0.26899057627 -2.3515905667e-08 -0.34305438399 -0.22247965634 -1.9449791111e-08 -0.96984577179
          -0.1902050525 -0.1902050823 -0.34305438399 -0.15731686354 -0.15731689334 -0.96984577179
          3.5273856724e-08 -0.26899057627 -0.34305438399 2.9174685778e-08 -0.22247965634 -0.96984577179
          0.1902050972 -0.19020503759 -0.34305438399 0.15731690824 -0.15731684864 -0.96984577179
        </DataArray>
      </Points>
      <Verts>
        <DataArray type="Int32" Name="connectivity" format="ascii" RangeMin="1e+299" RangeMax="-1e+299">
        </DataArray>
        <DataArray type="Int32" Name="offsets" format="ascii" RangeMin="1e+299" RangeMax="-1e+299">
        </DataArray>
      </Verts>
      <Lines>
        <DataArray type="Int32" Name="connectivity" format="ascii" RangeMin="1e+299" RangeMax="-1e+299">
        </DataArray>
        <DataArray type="Int32" Name="offsets" format="ascii" RangeMin="1e+299" RangeMax="-1e+299">
        </DataArray>
      </Lines>
      <Strips>
        <DataArray type="Int32" Name="connectivity" format="ascii" RangeMin="1e+299" RangeMax="-1e+299">
        </DataArray>
        <DataArray type="Int32" Name="offsets" format="ascii" RangeMin="1e+299" RangeMax="-1e+299">
        </DataArray>
      </Strips>
      <Polys>
        <DataArray type="Int32" Name="connectivity" format="ascii" RangeMin="0" RangeMax="33">
          0 1 2 1 3 2
          3 4 2 4 5 2
          5 6 2 6 7 2
          7 8 2 8 0 2
          9 10 11 11 10 12
          12 10 13 13 10 14
          14 10 15 15 10 16
          16 10 17 17 10 9
          0 18 19 0 19 1
          18 20 21 18 21 19
          20 9 11 20 11 21
          1 19 22 1 22 3
          19 21 23 19 23 22
          21 11 12 21 12 23
          3 22 24 3 24 4
          22 23 25 22 25 24
          23 12 13 23 13 25
          4 24 26 4 26 5
          24 25 27 24 27 26
          25 13 14 25 14 27
          5 26 28 5 28 6
          26 27 29 26 29 28
          27 14 15 27 15 29
          6 28 30 6 30 7
          28 29 31 28 31 30
          29 15 16 29 16 31
          7 30 32 7 32 8
          30 31 33 30 33 32
          31 16 17 31 17 33
          8 32 18 8 18 0
          32 33 20 32 20 18
          33 17 9 33 9 20
        </DataArray>
        <DataArray type="Int32" Name="offsets" format="ascii" RangeMin="3" RangeMax="192">
          3 6 9 12 15 18
          21 24 27 30 33 36
          39 42 45 48 51 54
          57 60 63 66 69 72
          75 78 81 84 87 90
          93 96 99 102 105 108
          111 114 117 120 123 126
          129 132 135 138 141 144
          147 150 153 156 159 162
          165 168 171 174 177 180
          183 186 189 192
        </DataArray>
      </Polys>
    </Piece>
  </PolyData>
</VTKFile>
