<VTKFile type="PolyData" version="0.1" byte_order="LittleEndian">
  <PolyData>
    <Piece NumberOfPoints="37" NumberOfVerts="0" NumberOfLines="0" NumberOfStrips="0" NumberOfPolys="62">
      <PointData Normals="Normals">
        <DataArray type="Float32" Name="Normals" NumberOfComponents="3" format="ascii" RangeMin="0.99999996653" RangeMax="1.0000000273">
          0 -2.2265571273e-16 -1 0.77963668108 -1.3943414332e-16 -0.62623208761
          0.97457802296 -4.9885654704e-17 -0.22404840589 1 1.7843081127e-24 8.0137549929e-09
          0.63073933125 -0.45825892687 -0.62623208761 0.78845018148 -0.57284259796 -0.22404837608
          0.80901700258 -0.58778524399 8.0137549929e-09 0.2409209609 -0.74147856236 -0.62623208761
          0.28879722953 -0.88882654905 -0.3557857275 0.3011611402 -0.92687880993 -0.22404837608
          0.30901697278 -0.95105654001 8.0137541048e-09 -0.24092102051 -0.74147856236 -0.62623208761
          -0.30781963468 -0.94737136364 -0.08794657141 -0.30901703238 -0.95105648041 8.0137549929e-09
          -0.63073939085 -0.45825889707 -0.62623208761 -0.75608104467 -0.54932498932 -0.3557857275
          -0.78845024109 -0.57284253836 -0.22404837608 -0.80901706219 -0.58778518438 8.0137541048e-09
          -0.77963668108 6.8158009014e-08 -0.62623208761 -0.99612522125 8.708403243e-08 -0.087946563959
          -1 8.7422776573e-08 8.0137549929e-09 -0.63073927164 0.45825901628 -0.62623208761
          -0.78845012188 0.57284265757 -0.22404837608 -0.80901694298 0.5877853632 8.0137541048e-09
          -0.2409209013 0.74147856236 -0.62623208761 -0.28879714012 0.88882660866 -0.3557857275
          -0.3011610508 0.92687880993 -0.22404839098 -0.30781948566 0.94737142324 -0.08794657141
          -0.30901688337 0.95105654001 8.0137549929e-09 0.24092108011 0.74147856236 -0.62623208761
          0.30116131902 0.92687875032 -0.22404837608 0.30901712179 0.95105648041 8.0137549929e-09
          0.63073939085 0.45825886726 -0.62623208761 0.75608110428 0.54932487011 -0.3557857275
          0.78845024109 0.57284247875 -0.22404839098 0.8058822751 0.5855075717 -0.087946563959
          0.80901706219 0.58778512478 8.0137549929e-09
        </DataArray>
      </PointData>
      <CellData>
      </CellData>
      <Points>
        <DataArray type="Float32" Name="Points" NumberOfComponents="3" format="ascii" RangeMin="0.27499999141" RangeMax="1.5">
          0 -1.0103002684e-16 -1.5 0.061193261296 -9.8496988043e-17 -1.4623918533
          0.17145968974 -7.8988449457e-17 -1.1727471352 0.27500000596 4.4161624654e-24 6.5567078877e-08
          0.049506384879 -0.03596849367 -1.4623918533 0.13871380687 -0.10078148544 -1.1727471352
          0.22247967124 -0.1616409421 6.5567078877e-08 0.018909754232 -0.058198247105 -1.4623918533
          0.036871299148 -0.1134781912 -1.3514533043 0.052983954549 -0.16306786239 -1.1727471352
          0.08497966826 -0.26154056191 6.5567078877e-08 -0.01890975982 -0.058198247105 -1.4623918533
          -0.076564051211 -0.23563988507 -0.65082556009 -0.084979683161 -0.26154053211 6.5567078877e-08
          -0.04950639233 -0.035968489945 -1.4623918533 -0.096530325711 -0.070133373141 -1.3514533043
          -0.13871382177 -0.10078147054 -1.1727471352 -0.22247968614 -0.1616409272 6.5567078877e-08
          -0.061193261296 5.3496846952e-09 -1.4623918533 -0.24776645005 2.1660431671e-08 -0.65082556009
          -0.27500000596 2.4041263202e-08 6.5567078877e-08 -0.049506381154 0.035968497396 -1.4623918533
          -0.13871380687 0.10078150034 -1.1727471352 -0.22247965634 0.1616409719 6.5567078877e-08
          -0.018909750506 0.05819825083 -1.4623918533 -0.036871284246 0.11347819865 -1.3514533043
          -0.052983939648 0.16306786239 -1.1727471352 -0.076564006507 0.23563989997 -0.65082556009
          -0.084979645908 0.26154056191 6.5567078877e-08 0.018909763545 0.058198247105 -1.4623918533
          0.052983984351 0.16306784749 -1.1727471352 0.084979705513 0.26154053211 6.5567078877e-08
          0.04950639233 0.03596848622 -1.4623918533 0.096530333161 0.070133365691 -1.3514533043
          0.13871382177 0.10078145564 -1.1727471352 0.20044729114 0.14563342929 -0.65082556009
          0.22247968614 0.16164091229 6.5567078877e-08
        </DataArray>
      </Points>
      <Verts>
        <DataArray type="Int32" Name="connectivity" format="ascii" RangeMin="1e+299" RangeMax="-1e+299">
        </DataArray>
        <DataArray type="Int32" Name="offsets" format="ascii" RangeMin="1e+299" RangeMax="-1e+299">
        </DataArray>
      </Verts>
      <Lines>
        <DataArray type="Int32" Name="connectivity" format="ascii" RangeMin="1e+299" RangeMax="-1e+299">
        </DataArray>
        <DataArray type="Int32" Name="offsets" format="ascii" RangeMin="1e+299" RangeMax="-1e+299">
        </DataArray>
      </Lines>
      <Strips>
        <DataArray type="Int32" Name="connectivity" format="ascii" RangeMin="1e+299" RangeMax="-1e+299">
        </DataArray>
        <DataArray type="Int32" Name="offsets" format="ascii" RangeMin="1e+299" RangeMax="-1e+299">
        </DataArray>
      </Strips>
      <Polys>
        <DataArray type="Int32" Name="connectivity" format="ascii" RangeMin="0" RangeMax="36">
          1 4 0 4 7 0
          7 11 0 11 14 0
          14 18 0 18 21 0
          21 24 0 24 29 0
          29 32 0 32 1 0
          1 2 5 1 5 4
          2 3 6 2 6 5
          4 8 7 4 5 9
          4 9 8 5 6 10
          5 10 9 7 8 11
          8 9 11 9 12 11
          9 10 13 9 13 12
          11 15 14 11 16 15
          11 12 16 12 13 17
          12 17 16 14 15 18
          15 16 18 16 19 18
          16 17 20 16 20 19
          18 22 21 18 19 22
          19 20 23 19 23 22
          21 25 24 21 22 26
          21 26 25 22 27 26
          22 23 28 22 28 27
          24 25 29 25 26 30
          25 30 29 26 27 30
          27 28 31 27 31 30
          29 33 32 29 30 34
          29 34 33 30 35 34
          30 31 36 30 36 35
          32 33 1 33 34 2
          33 2 1 34 35 2
          35 36 3 35 3 2
        </DataArray>
        <DataArray type="Int32" Name="offsets" format="ascii" RangeMin="3" RangeMax="186">
          3 6 9 12 15 18
          21 24 27 30 33 36
          39 42 45 48 51 54
          57 60 63 66 69 72
          75 78 81 84 87 90
          93 96 99 102 105 108
          111 114 117 120 123 126
          129 132 135 138 141 144
          147 150 153 156 159 162
          165 168 171 174 177 180
          183 186
        </DataArray>
      </Polys>
    </Piece>
  </PolyData>
</VTKFile>
