<VTKFile type="PolyData" version="0.1" byte_order="LittleEndian">
  <PolyData>
    <Piece NumberOfPoints="98" NumberOfVerts="0" NumberOfLines="0" NumberOfStrips="0" NumberOfPolys="192">
      <PointData Normals="Normals">
        <DataArray type="Float32" Name="Normals" NumberOfComponents="3" format="ascii" RangeMin="0.99999997114" RangeMax="1.0000000284">
          0 0 1 0 0 -1
          0.4338837564 0 0.90096884966 0.78183150291 0 0.62348979712
          0.97492790222 0 0.22252090275 0.97492790222 0 -0.22252097726
          0.78183144331 0 -0.62348985672 0.43388366699 0 -0.90096890926
          0.40085631609 0.16604012251 0.90096884966 0.72231811285 0.29919397831 0.62348979712
          0.90071594715 0.37308877707 0.22252090275 0.90071594715 0.37308877707 -0.22252097726
          0.72231805325 0.29919394851 -0.62348985672 0.40085625648 0.16604009271 -0.90096890926
          0.30680212379 0.30680215359 0.90096884966 0.5528383255 0.55283838511 0.62348979712
          0.68937814236 0.68937814236 0.22252090275 0.68937814236 0.68937814236 -0.22252097726
          0.5528383255 0.5528383255 -0.62348985672 0.30680209398 0.30680209398 -0.90096890926
          0.16604010761 0.40085631609 0.90096884966 0.29919394851 0.72231811285 0.62348979712
          0.37308874726 0.90071594715 0.22252090275 0.37308871746 0.90071594715 -0.22252097726
          0.2991939187 0.72231805325 -0.62348985672 0.16604007781 0.40085625648 -0.90096890926
          -1.8965661042e-08 0.4338837564 0.90096884966 -3.4174941987e-08 0.78183150291 0.62348979712
          -4.2615454277e-08 0.97492790222 0.22252090275 -4.2615454277e-08 0.97492790222 -0.22252097726
          -3.4174938435e-08 0.78183144331 -0.62348985672 -1.8965659265e-08 0.43388366699 -0.90096890926
          -0.16604013741 0.40085631609 0.90096884966 -0.29919400811 0.72231811285 0.62348979712
          -0.37308880687 0.90071594715 0.22252090275 -0.37308880687 0.90071588755 -0.22252097726
          -0.29919397831 0.72231805325 -0.62348985672 -0.16604010761 0.40085622668 -0.90096890926
          -0.30680215359 0.30680212379 0.90096884966 -0.55283838511 0.5528383255 0.62348979712
          -0.68937820196 0.68937808275 0.22252090275 -0.68937820196 0.68937808275 -0.22252097726
          -0.5528383255 0.5528382659 -0.62348985672 -0.30680209398 0.30680206418 -0.90096890926
          -0.40085631609 0.16604009271 0.90096884966 -0.72231811285 0.2991939187 0.62348979712
          -0.90071600676 0.37308868766 0.22252090275 -0.90071594715 0.37308868766 -0.22252097726
          -0.72231811285 0.2991938889 -0.62348985672 -0.40085625648 0.1660400629 -0.90096890926
          -0.4338837564 -3.7931322083e-08 0.90096884966 -0.78183150291 -6.8349883975e-08 0.62348979712
          -0.97492790222 -8.5230908553e-08 0.22252090275 -0.97492790222 -8.5230908553e-08 -0.22252097726
          -0.78183144331 -6.8349876869e-08 -0.62348985672 -0.43388366699 -3.7931318531e-08 -0.90096890926
          -0.40085628629 -0.16604016721 0.90096884966 -0.72231811285 -0.29919403791 0.62348979712
          -0.90071588755 -0.37308883667 0.22252090275 -0.90071588755 -0.37308883667 -0.22252097726
          -0.72231805325 -0.29919400811 -0.62348985672 -0.40085622668 -0.16604013741 -0.90096890926
          -0.30680209398 -0.30680218339 0.90096884966 -0.5528382659 -0.55283838511 0.62348979712
          -0.68937808275 -0.68937820196 0.22252090275 -0.68937808275 -0.68937820196 -0.22252097726
          -0.5528382659 -0.55283838511 -0.62348985672 -0.30680206418 -0.30680212379 -0.90096890926
          -0.16604007781 -0.40085634589 0.90096884966 -0.2991938889 -0.72231817245 0.62348979712
          -0.37308865786 -0.90071600676 0.22252090275 -0.37308865786 -0.90071600676 -0.22252097726
          -0.2991938591 -0.72231811285 -0.62348985672 -0.166040048 -0.40085625648 -0.90096890926
          5.6896986678e-08 -0.4338837564 0.90096884966 1.0252482241e-07 -0.78183150291 0.62348979712
          1.2784636283e-07 -0.97492790222 0.22252090275 1.2784636283e-07 -0.97492790222 -0.22252097726
          1.025248153e-07 -0.78183144331 -0.62348985672 5.689697602e-08 -0.43388366699 -0.90096890926
          0.16604018211 -0.40085628629 0.90096884966 0.29919406772 -0.72231805325 0.62348979712
          0.37308889627 -0.90071588755 0.22252090275 0.37308889627 -0.90071588755 -0.22252097726
          0.29919403791 -0.72231805325 -0.62348985672 0.16604015231 -0.40085622668 -0.90096890926
          0.30680218339 -0.30680209398 0.90096884966 0.55283844471 -0.5528382659 0.62348979712
          0.68937826157 -0.68937802315 0.22252090275 0.68937826157 -0.68937802315 -0.22252097726
          0.55283838511 -0.55283820629 -0.62348985672 0.30680212379 -0.30680203438 -0.90096890926
          0.40085634589 -0.1660400629 0.90096884966 0.72231817245 -0.2991938293 0.62348979712
          0.90071600676 -0.37308862805 0.22252090275 0.90071600676 -0.37308859825 -0.22252097726
          0.72231811285 -0.2991938293 -0.62348985672 0.40085625648 -0.1660400331 -0.90096890926
        </DataArray>
      </PointData>
      <CellData>
      </CellData>
      <Points>
        <DataArray type="Float32" Name="Points" NumberOfComponents="3" format="ascii" RangeMin="0.99999997114" RangeMax="1.0000000284">
          0 0 1 0 0 -1
          0.4338837564 0 0.90096884966 0.78183150291 0 0.62348979712
          0.97492790222 0 0.22252090275 0.97492790222 0 -0.22252097726
          0.78183144331 0 -0.62348985672 0.43388366699 0 -0.90096890926
          0.40085631609 0.16604012251 0.90096884966 0.72231811285 0.29919397831 0.62348979712
          0.90071594715 0.37308877707 0.22252090275 0.90071594715 0.37308877707 -0.22252097726
          0.72231805325 0.29919394851 -0.62348985672 0.40085625648 0.16604009271 -0.90096890926
          0.30680212379 0.30680215359 0.90096884966 0.5528383255 0.55283838511 0.62348979712
          0.68937814236 0.68937814236 0.22252090275 0.68937814236 0.68937814236 -0.22252097726
          0.5528383255 0.5528383255 -0.62348985672 0.30680209398 0.30680209398 -0.90096890926
          0.16604010761 0.40085631609 0.90096884966 0.29919394851 0.72231811285 0.62348979712
          0.37308874726 0.90071594715 0.22252090275 0.37308871746 0.90071594715 -0.22252097726
          0.2991939187 0.72231805325 -0.62348985672 0.16604007781 0.40085625648 -0.90096890926
          -1.8965661042e-08 0.4338837564 0.90096884966 -3.4174941987e-08 0.78183150291 0.62348979712
          -4.2615454277e-08 0.97492790222 0.22252090275 -4.2615454277e-08 0.97492790222 -0.22252097726
          -3.4174938435e-08 0.78183144331 -0.62348985672 -1.8965659265e-08 0.43388366699 -0.90096890926
          -0.16604013741 0.40085631609 0.90096884966 -0.29919400811 0.72231811285 0.62348979712
          -0.37308880687 0.90071594715 0.22252090275 -0.37308880687 0.90071588755 -0.22252097726
          -0.29919397831 0.72231805325 -0.62348985672 -0.16604010761 0.40085622668 -0.90096890926
          -0.30680215359 0.30680212379 0.90096884966 -0.55283838511 0.5528383255 0.62348979712
          -0.68937820196 0.68937808275 0.22252090275 -0.68937820196 0.68937808275 -0.22252097726
          -0.5528383255 0.5528382659 -0.62348985672 -0.30680209398 0.30680206418 -0.90096890926
          -0.40085631609 0.16604009271 0.90096884966 -0.72231811285 0.2991939187 0.62348979712
          -0.90071600676 0.37308868766 0.22252090275 -0.90071594715 0.37308868766 -0.22252097726
          -0.72231811285 0.2991938889 -0.62348985672 -0.40085625648 0.1660400629 -0.90096890926
          -0.4338837564 -3.7931322083e-08 0.90096884966 -0.78183150291 -6.8349883975e-08 0.62348979712
          -0.97492790222 -8.5230908553e-08 0.22252090275 -0.97492790222 -8.5230908553e-08 -0.22252097726
          -0.78183144331 -6.8349876869e-08 -0.62348985672 -0.43388366699 -3.7931318531e-08 -0.90096890926
          -0.40085628629 -0.16604016721 0.90096884966 -0.72231811285 -0.29919403791 0.62348979712
          -0.90071588755 -0.37308883667 0.22252090275 -0.90071588755 -0.37308883667 -0.22252097726
          -0.72231805325 -0.29919400811 -0.62348985672 -0.40085622668 -0.16604013741 -0.90096890926
          -0.30680209398 -0.30680218339 0.90096884966 -0.5528382659 -0.55283838511 0.62348979712
          -0.68937808275 -0.68937820196 0.22252090275 -0.68937808275 -0.68937820196 -0.22252097726
          -0.5528382659 -0.55283838511 -0.62348985672 -0.30680206418 -0.30680212379 -0.90096890926
          -0.16604007781 -0.40085634589 0.90096884966 -0.2991938889 -0.72231817245 0.62348979712
          -0.37308865786 -0.90071600676 0.22252090275 -0.37308865786 -0.90071600676 -0.22252097726
          -0.2991938591 -0.72231811285 -0.62348985672 -0.166040048 -0.40085625648 -0.90096890926
          5.6896986678e-08 -0.4338837564 0.90096884966 1.0252482241e-07 -0.78183150291 0.62348979712
          1.2784636283e-07 -0.97492790222 0.22252090275 1.2784636283e-07 -0.97492790222 -0.22252097726
          1.025248153e-07 -0.78183144331 -0.62348985672 5.689697602e-08 -0.43388366699 -0.90096890926
          0.16604018211 -0.40085628629 0.90096884966 0.29919406772 -0.72231805325 0.62348979712
          0.37308889627 -0.90071588755 0.22252090275 0.37308889627 -0.90071588755 -0.22252097726
          0.29919403791 -0.72231805325 -0.62348985672 0.16604015231 -0.40085622668 -0.90096890926
          0.30680218339 -0.30680209398 0.90096884966 0.55283844471 -0.5528382659 0.62348979712
          0.68937826157 -0.68937802315 0.22252090275 0.68937826157 -0.68937802315 -0.22252097726
          0.55283838511 -0.55283820629 -0.62348985672 0.30680212379 -0.30680203438 -0.90096890926
          0.40085634589 -0.1660400629 0.90096884966 0.72231817245 -0.2991938293 0.62348979712
          0.90071600676 -0.37308862805 0.22252090275 0.90071600676 -0.37308859825 -0.22252097726
          0.72231811285 -0.2991938293 -0.62348985672 0.40085625648 -0.1660400331 -0.90096890926
        </DataArray>
      </Points>
      <Verts>
        <DataArray type="Int32" Name="connectivity" format="ascii" RangeMin="1e+299" RangeMax="-1e+299">
        </DataArray>
        <DataArray type="Int32" Name="offsets" format="ascii" RangeMin="1e+299" RangeMax="-1e+299">
        </DataArray>
      </Verts>
      <Lines>
        <DataArray type="Int32" Name="connectivity" format="ascii" RangeMin="1e+299" RangeMax="-1e+299">
        </DataArray>
        <DataArray type="Int32" Name="offsets" format="ascii" RangeMin="1e+299" RangeMax="-1e+299">
        </DataArray>
      </Lines>
      <Strips>
        <DataArray type="Int32" Name="connectivity" format="ascii" RangeMin="1e+299" RangeMax="-1e+299">
        </DataArray>
        <DataArray type="Int32" Name="offsets" format="ascii" RangeMin="1e+299" RangeMax="-1e+299">
        </DataArray>
      </Strips>
      <Polys>
        <DataArray type="Int32" Name="connectivity" format="ascii" RangeMin="0" RangeMax="97">
          2 8 0 8 14 0
          14 20 0 20 26 0
          26 32 0 32 38 0
          38 44 0 44 50 0
          50 56 0 56 62 0
          62 68 0 68 74 0
          74 80 0 80 86 0
          86 92 0 92 2 0
          7 1 13 13 1 19
          19 1 25 25 1 31
          31 1 37 37 1 43
          43 1 49 49 1 55
          55 1 61 61 1 67
          67 1 73 73 1 79
          79 1 85 85 1 91
          91 1 97 97 1 7
          2 3 9 2 9 8
          3 4 10 3 10 9
          4 5 11 4 11 10
          5 6 12 5 12 11
          6 7 13 6 13 12
          8 9 15 8 15 14
          9 10 16 9 16 15
          10 11 17 10 17 16
          11 12 18 11 18 17
          12 13 19 12 19 18
          14 15 21 14 21 20
          15 16 22 15 22 21
          16 17 23 16 23 22
          17 18 24 17 24 23
          18 19 25 18 25 24
          20 21 27 20 27 26
          21 22 28 21 28 27
          22 23 29 22 29 28
          23 24 30 23 30 29
          24 25 31 24 31 30
          26 27 33 26 33 32
          27 28 34 27 34 33
          28 29 35 28 35 34
          29 30 36 29 36 35
          30 31 37 30 37 36
          32 33 39 32 39 38
          33 34 40 33 40 39
          34 35 41 34 41 40
          35 36 42 35 42 41
          36 37 43 36 43 42
          38 39 45 38 45 44
          39 40 46 39 46 45
          40 41 47 40 47 46
          41 42 48 41 48 47
          42 43 49 42 49 48
          44 45 51 44 51 50
          45 46 52 45 52 51
          46 47 53 46 53 52
          47 48 54 47 54 53
          48 49 55 48 55 54
          50 51 57 50 57 56
          51 52 58 51 58 57
          52 53 59 52 59 58
          53 54 60 53 60 59
          54 55 61 54 61 60
          56 57 63 56 63 62
          57 58 64 57 64 63
          58 59 65 58 65 64
          59 60 66 59 66 65
          60 61 67 60 67 66
          62 63 69 62 69 68
          63 64 70 63 70 69
          64 65 71 64 71 70
          65 66 72 65 72 71
          66 67 73 66 73 72
          68 69 75 68 75 74
          69 70 76 69 76 75
          70 71 77 70 77 76
          71 72 78 71 78 77
          72 73 79 72 79 78
          74 75 81 74 81 80
          75 76 82 75 82 81
          76 77 83 76 83 82
          77 78 84 77 84 83
          78 79 85 78 85 84
          80 81 87 80 87 86
          81 82 88 81 88 87
          82 83 89 82 89 88
          83 84 90 83 90 89
          84 85 91 84 91 90
          86 87 93 86 93 92
          87 88 94 87 94 93
          88 89 95 88 95 94
          89 90 96 89 96 95
          90 91 97 90 97 96
          92 93 3 92 3 2
          93 94 4 93 4 3
          94 95 5 94 5 4
          95 96 6 95 6 5
          96 97 7 96 7 6
        </DataArray>
        <DataArray type="Int32" Name="offsets" format="ascii" RangeMin="3" RangeMax="576">
          3 6 9 12 15 18
          21 24 27 30 33 36
          39 42 45 48 51 54
          57 60 63 66 69 72
          75 78 81 84 87 90
          93 96 99 102 105 108
          111 114 117 120 123 126
          129 132 135 138 141 144
          147 150 153 156 159 162
          165 168 171 174 177 180
          183 186 189 192 195 198
          201 204 207 210 213 216
          219 222 225 228 231 234
          237 240 243 246 249 252
          255 258 261 264 267 270
          273 276 279 282 285 288
          291 294 297 300 303 306
          309 312 315 318 321 324
          327 330 333 336 339 342
          345 348 351 354 357 360
          363 366 369 372 375 378
          381 384 387 390 393 396
          399 402 405 408 411 414
          417 420 423 426 429 432
          435 438 441 444 447 450
          453 456 459 462 465 468
          471 474 477 480 483 486
          489 492 495 498 501 504
          507 510 513 516 519 522
          525 528 531 534 537 540
          543 546 549 552 555 558
          561 564 567 570 573 576
        </DataArray>
      </Polys>
    </Piece>
  </PolyData>
</VTKFile>
