<?xml version="1.0"?>
<VTKFile type="PolyData" version="0.1" byte_order="LittleEndian" compressor="vtkZLibDataCompressor">
  <PolyData>
    <Piece NumberOfPoints="82" NumberOfVerts="0" NumberOfLines="0" NumberOfStrips="0" NumberOfPolys="160">
      <PointData Normals="Normals">
        <DataArray type="Float32" Name="Normals" NumberOfComponents="3" format="ascii" RangeMin="0.99999996178" RangeMax="1.0000000333">
          0 0 1 0 0 -1
          0.342020154 0 0.93969261646 0.64278763533 0 0.76604443789
          0.86602544785 0 0.4999999702 0.98480778933 0 0.17364813387
          0.98480772972 0 -0.17364822328 0.86602538824 0 -0.5000000596
          0.64278757572 0 -0.76604449749 0.34202006459 0 -0.93969267607
          0.27670010924 0.20103441179 0.93969261646 0.52002608776 0.37782108784 0.76604443789
          0.70062929392 0.50903695822 0.4999999702 0.79672622681 0.57885551453 0.17364813387
          0.7967261672 0.57885545492 -0.17364822328 0.70062923431 0.50903695822 -0.5000000596
          0.52002602816 0.37782105803 -0.76604449749 0.27670004964 0.20103435218 -0.93969267607
          0.10569002479 0.32528048754 0.93969261646 0.198632285 0.61132735014 0.76604443789
          0.26761654019 0.82363915443 0.4999999702 0.30432230234 0.93660783768 0.17364813387
          0.30432230234 0.93660783768 -0.17364822328 0.26761654019 0.82363909483 -0.5000000596
          0.1986322552 0.61132729053 -0.76604449749 0.10569000244 0.32528042793 -0.93969267607
          -0.1056900546 0.32528048754 0.93969261646 -0.1986323297 0.61132735014 0.76604443789
          -0.2676166296 0.82363909483 0.4999999702 -0.30432239175 0.93660783768 0.17364813387
          -0.30432239175 0.93660777807 -0.17364822328 -0.2676165998 0.82363903522 -0.5000000596
          -0.1986323148 0.61132729053 -0.76604449749 -0.10569003224 0.32528039813 -0.93969267607
          -0.27670013905 0.20103438199 0.93969261646 -0.52002614737 0.37782105803 0.76604443789
          -0.70062929392 0.50903689861 0.4999999702 -0.79672622681 0.57885539532 0.17364813387
          -0.79672622681 0.57885539532 -0.17364822328 -0.70062929392 0.50903689861 -0.5000000596
          -0.52002608776 0.37782099843 -0.76604449749 -0.27670004964 0.20103433728 -0.93969267607
          -0.342020154 -2.9900352416e-08 0.93969261646 -0.64278763533 -5.6194281228e-08 0.76604443789
          -0.86602544785 -7.5710346437e-08 0.4999999702 -0.98480778933 -8.6094630092e-08 0.17364813387
          -0.98480772972 -8.6094630092e-08 -0.17364822328 -0.86602538824 -7.5710346437e-08 -0.5000000596
          -0.64278757572 -5.6194274123e-08 -0.76604449749 -0.34202006459 -2.9900345311e-08 -0.93969267607
          -0.27670010924 -0.20103442669 0.93969261646 -0.52002608776 -0.37782114744 0.76604443789
          -0.70062923431 -0.50903701782 0.4999999702 -0.7967261672 -0.57885557413 0.17364813387
          -0.7967261672 -0.57885557413 -0.17364822328 -0.70062917471 -0.50903701782 -0.5000000596
          -0.52002602816 -0.37782108784 -0.76604449749 -0.27670001984 -0.20103438199 -0.93969267607
          -0.10569000244 -0.32528051734 0.93969261646 -0.19863222539 -0.61132740974 0.76604443789
          -0.26761648059 -0.82363915443 0.4999999702 -0.30432221293 -0.93660789728 0.17364813387
          -0.30432221293 -0.93660783768 -0.17364822328 -0.26761645079 -0.82363909483 -0.5000000596
          -0.19863221049 -0.61132729053 -0.76604449749 -0.10568997264 -0.32528042793 -0.93969267607
          0.1056900844 -0.32528048754 0.93969261646 0.19863238931 -0.61132735014 0.76604443789
          0.26761668921 -0.82363909483 0.4999999702 0.30432245135 -0.93660777807 0.17364813387
          0.30432245135 -0.93660777807 -0.17364822328 0.2676166594 -0.82363903522 -0.5000000596
          0.1986323595 -0.61132729053 -0.76604449749 0.10569006205 -0.32528039813 -0.93969267607
          0.27670013905 -0.20103435218 0.93969261646 0.52002614737 -0.37782099843 0.76604443789
          0.70062935352 -0.50903683901 0.4999999702 0.79672628641 -0.57885533571 0.17364813387
          0.79672628641 -0.57885533571 -0.17364822328 0.70062935352 -0.50903683901 -0.5000000596
          0.52002608776 -0.37782096863 -0.76604449749 0.27670007944 -0.20103430748 -0.93969267607
        </DataArray>
      </PointData>
      <CellData>
      </CellData>
      <Points>
        <DataArray type="Float32" Name="Points" NumberOfComponents="3" format="ascii" RangeMin="0.9999999711" RangeMax="1.0000000318">
          0 0 1 0 0 -1
          0.40673664212 0 0.91354542971 0.58778524399 0 0.80901700258
          0.86602544785 0 0.4999999702 0.99452191591 0 0.10452841967
          0.99452191591 0 -0.10452850908 0.86602538824 0 -0.5000000596
          0.58778518438 0 -0.80901706219 0.40673658252 0 -0.91354548931
          0.28760623932 0.28760623932 0.91354542971 0.41562694311 0.41562694311 0.80901700258
          0.61237245798 0.61237245798 0.4999999702 0.70323318243 0.70323318243 0.10452841967
          0.70323318243 0.70323318243 -0.10452850908 0.61237239838 0.61237245798 -0.5000000596
          0.41562688351 0.41562691331 -0.80901706219 0.28760617971 0.28760620952 -0.91354548931
          0.15565136075 0.37577566504 0.91354542971 0.22493566573 0.54304277897 0.80901700258
          0.33141356707 0.80010318756 0.4999999702 0.38058701158 0.91881841421 0.10452841967
          0.38058701158 0.91881841421 -0.10452850908 0.33141353726 0.80010312796 -0.5000000596
          0.22493563592 0.54304271936 -0.80901706219 0.15565133095 0.37577560544 -0.91354548931
          -0.15565140545 0.37577566504 0.91354542971 -0.22493571043 0.54304277897 0.80901700258
          -0.33141362667 0.80010312796 0.4999999702 -0.38058710098 0.91881841421 0.10452841967
          -0.38058710098 0.91881841421 -0.10452850908 -0.33141359687 0.80010312796 -0.5000000596
          -0.22493568063 0.54304271936 -0.80901706219 -0.15565137565 0.37577557564 -0.91354548931
          -0.28760626912 0.28760623932 0.91354542971 -0.41562697291 0.41562691331 0.80901700258
          -0.61237245798 0.61237239838 0.4999999702 -0.70323324203 0.70323312283 0.10452841967
          -0.70323324203 0.70323312283 -0.10452850908 -0.61237245798 0.61237239838 -0.5000000596
          -0.41562691331 0.41562688351 -0.80901706219 -0.28760620952 0.28760617971 -0.91354548931
          -0.40673664212 -3.555804895e-08 0.91354542971 -0.58778524399 -5.138582182e-08 0.80901700258
          -0.86602544785 -7.5710346437e-08 0.4999999702 -0.99452191591 -8.694387077e-08 0.10452841967
          -0.99452191591 -8.694387077e-08 -0.10452850908 -0.86602538824 -7.5710346437e-08 -0.5000000596
          -0.58778518438 -5.1385814714e-08 -0.80901706219 -0.40673658252 -3.5558041844e-08 -0.91354548931
          -0.28760620952 -0.28760626912 0.91354542971 -0.41562691331 -0.41562700272 0.80901700258
          -0.61237239838 -0.61237251759 0.4999999702 -0.70323312283 -0.70323324203 0.10452841967
          -0.70323312283 -0.70323324203 -0.10452850908 -0.61237233877 -0.61237245798 -0.5000000596
          -0.4156268537 -0.41562694311 -0.80901706219 -0.28760614991 -0.28760620952 -0.91354548931
          -0.15565133095 -0.37577569485 0.91354542971 -0.22493562102 -0.54304277897 0.80901700258
          -0.33141347766 -0.80010318756 0.4999999702 -0.38058695197 -0.91881847382 0.10452841967
          -0.38058695197 -0.91881847382 -0.10452850908 -0.33141347766 -0.80010318756 -0.5000000596
          -0.22493559122 -0.54304271936 -0.80901706219 -0.15565130115 -0.37577560544 -0.91354548931
          0.15565143526 -0.37577563524 0.91354542971 0.22493575513 -0.54304271936 0.80901700258
          0.33141368628 -0.80010312796 0.4999999702 0.38058719039 -0.91881835461 0.10452841967
          0.38058719039 -0.91881835461 -0.10452850908 0.33141368628 -0.80010306835 -0.5000000596
          0.22493574023 -0.54304265976 -0.80901706219 0.15565140545 -0.37577557564 -0.91354548931
          0.28760629892 -0.28760620952 0.91354542971 0.41562700272 -0.41562688351 0.80901700258
          0.61237251759 -0.61237233877 0.4999999702 0.70323330164 -0.70323306322 0.10452841967
          0.70323330164 -0.70323306322 -0.10452850908 0.61237251759 -0.61237233877 -0.5000000596
          0.41562697291 -0.4156268239 -0.80901706219 0.28760623932 -0.28760614991 -0.91354548931
        </DataArray>
      </Points>
      <Verts>
        <DataArray type="Int32" Name="connectivity" format="ascii" RangeMin="1e+299" RangeMax="-1e+299">
        </DataArray>
        <DataArray type="Int32" Name="offsets" format="ascii" RangeMin="1e+299" RangeMax="-1e+299">
        </DataArray>
      </Verts>
      <Lines>
        <DataArray type="Int32" Name="connectivity" format="ascii" RangeMin="1e+299" RangeMax="-1e+299">
        </DataArray>
        <DataArray type="Int32" Name="offsets" format="ascii" RangeMin="1e+299" RangeMax="-1e+299">
        </DataArray>
      </Lines>
      <Strips>
        <DataArray type="Int32" Name="connectivity" format="ascii" RangeMin="1e+299" RangeMax="-1e+299">
        </DataArray>
        <DataArray type="Int32" Name="offsets" format="ascii" RangeMin="1e+299" RangeMax="-1e+299">
        </DataArray>
      </Strips>
      <Polys>
        <DataArray type="Int32" Name="connectivity" format="ascii" RangeMin="0" RangeMax="81">
          2 10 0 10 18 0
          18 26 0 26 34 0
          34 42 0 42 50 0
          50 58 0 58 66 0
          66 74 0 74 2 0
          9 1 17 17 1 25
          25 1 33 33 1 41
          41 1 49 49 1 57
          57 1 65 65 1 73
          73 1 81 81 1 9
          2 3 11 2 11 10
          3 4 12 3 12 11
          4 5 13 4 13 12
          5 6 14 5 14 13
          6 7 15 6 15 14
          7 8 16 7 16 15
          8 9 17 8 17 16
          10 11 19 10 19 18
          11 12 20 11 20 19
          12 13 21 12 21 20
          13 14 22 13 22 21
          14 15 23 14 23 22
          15 16 24 15 24 23
          16 17 25 16 25 24
          18 19 27 18 27 26
          19 20 28 19 28 27
          20 21 29 20 29 28
          21 22 30 21 30 29
          22 23 31 22 31 30
          23 24 32 23 32 31
          24 25 33 24 33 32
          26 27 35 26 35 34
          27 28 36 27 36 35
          28 29 37 28 37 36
          29 30 38 29 38 37
          30 31 39 30 39 38
          31 32 40 31 40 39
          32 33 41 32 41 40
          34 35 43 34 43 42
          35 36 44 35 44 43
          36 37 45 36 45 44
          37 38 46 37 46 45
          38 39 47 38 47 46
          39 40 48 39 48 47
          40 41 49 40 49 48
          42 43 51 42 51 50
          43 44 52 43 52 51
          44 45 53 44 53 52
          45 46 54 45 54 53
          46 47 55 46 55 54
          47 48 56 47 56 55
          48 49 57 48 57 56
          50 51 59 50 59 58
          51 52 60 51 60 59
          52 53 61 52 61 60
          53 54 62 53 62 61
          54 55 63 54 63 62
          55 56 64 55 64 63
          56 57 65 56 65 64
          58 59 67 58 67 66
          59 60 68 59 68 67
          60 61 69 60 69 68
          61 62 70 61 70 69
          62 63 71 62 71 70
          63 64 72 63 72 71
          64 65 73 64 73 72
          66 67 75 66 75 74
          67 68 76 67 76 75
          68 69 77 68 77 76
          69 70 78 69 78 77
          70 71 79 70 79 78
          71 72 80 71 80 79
          72 73 81 72 81 80
          74 75 3 74 3 2
          75 76 4 75 4 3
          76 77 5 76 5 4
          77 78 6 77 6 5
          78 79 7 78 7 6
          79 80 8 79 8 7
          80 81 9 80 9 8
        </DataArray>
        <DataArray type="Int32" Name="offsets" format="ascii" RangeMin="3" RangeMax="480">
          3 6 9 12 15 18
          21 24 27 30 33 36
          39 42 45 48 51 54
          57 60 63 66 69 72
          75 78 81 84 87 90
          93 96 99 102 105 108
          111 114 117 120 123 126
          129 132 135 138 141 144
          147 150 153 156 159 162
          165 168 171 174 177 180
          183 186 189 192 195 198
          201 204 207 210 213 216
          219 222 225 228 231 234
          237 240 243 246 249 252
          255 258 261 264 267 270
          273 276 279 282 285 288
          291 294 297 300 303 306
          309 312 315 318 321 324
          327 330 333 336 339 342
          345 348 351 354 357 360
          363 366 369 372 375 378
          381 384 387 390 393 396
          399 402 405 408 411 414
          417 420 423 426 429 432
          435 438 441 444 447 450
          453 456 459 462 465 468
          471 474 477 480
        </DataArray>
      </Polys>
    </Piece>
  </PolyData>
</VTKFile>
