<VTKFile type="PolyData" version="0.1" byte_order="LittleEndian">
  <PolyData>
    <Piece NumberOfPoints="226" NumberOfVerts="0" NumberOfLines="0" NumberOfStrips="0" NumberOfPolys="448">
      <PointData Normals="Normals">
        <DataArray type="Float32" Name="Normals" NumberOfComponents="3" format="ascii" RangeMin="0.99999996765" RangeMax="1.0000000399">
          0 0 1 0 0 -1
          0.20791170001 0 0.97814762592 0.40673664212 0 0.91354542971
          0.58778524399 0 0.80901700258 0.7431448698 0 0.66913056374
          0.86602544785 0 0.4999999702 0.95105654001 0 0.30901697278
          0.99452191591 0 0.10452841967 0.99452191591 0 -0.10452850908
          0.95105648041 0 -0.30901703238 0.86602538824 0 -0.5000000596
          0.7431448102 0 -0.66913068295 0.58778518438 0 -0.80901706219
          0.40673658252 0 -0.91354548931 0.2079116106 0 -0.97814762592
          0.19208535552 0.079564362764 0.97814762592 0.37577566504 0.15565137565 0.91354542971
          0.54304277897 0.22493569553 0.80901700258 0.68657630682 0.28438922763 0.66913056374
          0.80010312796 0.33141359687 0.4999999702 0.87866163254 0.36395359039 0.30901697278
          0.91881841421 0.38058707118 0.10452841967 0.91881841421 0.38058707118 -0.10452850908
          0.87866163254 0.36395356059 -0.30901703238 0.80010312796 0.33141356707 -0.5000000596
          0.68657624722 0.28438919783 -0.66913068295 0.54304271936 0.22493566573 -0.80901706219
          0.37577560544 0.15565134585 -0.91354548931 0.19208528101 0.079564332962 -0.97814762592
          0.14701576531 0.14701578021 0.97814762592 0.28760623932 0.28760623932 0.91354542971
          0.41562694311 0.41562694311 0.80901700258 0.52548277378 0.52548277378 0.66913056374
          0.61237245798 0.61237245798 0.4999999702 0.67249852419 0.67249852419 0.30901697278
          0.70323318243 0.70323318243 0.10452841967 0.70323318243 0.70323318243 -0.10452850908
          0.67249846458 0.67249852419 -0.30901703238 0.61237239838 0.61237245798 -0.5000000596
          0.52548271418 0.52548271418 -0.66913068295 0.41562688351 0.41562691331 -0.80901706219
          0.28760617971 0.28760620952 -0.91354548931 0.1470157057 0.14701572061 -0.97814762592
          0.079564355314 0.19208537042 0.97814762592 0.15565136075 0.37577566504 0.91354542971
          0.22493566573 0.54304277897 0.80901700258 0.28438919783 0.68657630682 0.66913056374
          0.33141356707 0.80010318756 0.4999999702 0.36395356059 0.87866169214 0.30901697278
          0.38058701158 0.91881841421 0.10452841967 0.38058701158 0.91881841421 -0.10452850908
          0.36395353079 0.87866163254 -0.30901703238 0.33141353726 0.80010312796 -0.5000000596
          0.28438916802 0.68657624722 -0.66913068295 0.22493563592 0.54304271936 -0.80901706219
          0.15565133095 0.37577560544 -0.91354548931 0.079564325511 0.19208528101 -0.97814762592
          -9.0881089321e-09 0.20791170001 0.97814762592 -1.7779024475e-08 0.40673664212 0.91354542971
          -2.569291091e-08 0.58778524399 0.80901700258 -3.2483892909e-08 0.7431448698 0.66913056374
          -3.7855173218e-08 0.86602544785 0.4999999702 -4.1572004505e-08 0.95105654001 0.30901697278
          -4.3471935385e-08 0.99452191591 0.10452841967 -4.3471935385e-08 0.99452191591 -0.10452850908
          -4.1572000953e-08 0.95105648041 -0.30901703238 -3.7855173218e-08 0.86602538824 -0.5000000596
          -3.2483892909e-08 0.7431448102 -0.66913068295 -2.5692907357e-08 0.58778518438 -0.80901706219
          -1.7779020922e-08 0.40673658252 -0.91354548931 -9.0881053794e-09 0.2079116106 -0.97814762592
          -0.079564370215 0.19208535552 0.97814762592 -0.15565140545 0.37577566504 0.91354542971
          -0.22493571043 0.54304277897 0.80901700258 -0.28438925743 0.68657630682 0.66913056374
          -0.33141362667 0.80010312796 0.4999999702 -0.3639536202 0.87866163254 0.30901697278
          -0.38058710098 0.91881841421 0.10452841967 -0.38058710098 0.91881841421 -0.10452850908
          -0.3639536202 0.87866163254 -0.30901703238 -0.33141359687 0.80010312796 -0.5000000596
          -0.28438922763 0.68657624722 -0.66913068295 -0.22493568063 0.54304271936 -0.80901706219
          -0.15565137565 0.37577557564 -0.91354548931 -0.079564340413 0.19208528101 -0.97814762592
          -0.14701578021 0.14701576531 0.97814762592 -0.28760626912 0.28760623932 0.91354542971
          -0.41562697291 0.41562691331 0.80901700258 -0.52548277378 0.52548271418 0.66913056374
          -0.61237245798 0.61237239838 0.4999999702 -0.67249858379 0.67249846458 0.30901697278
          -0.70323324203 0.70323312283 0.10452841967 -0.70323324203 0.70323312283 -0.10452850908
          -0.67249852419 0.67249846458 -0.30901703238 -0.61237245798 0.61237239838 -0.5000000596
          -0.52548277378 0.52548265457 -0.66913068295 -0.41562691331 0.41562688351 -0.80901706219
          -0.28760620952 0.28760617971 -0.91354548931 -0.14701572061 0.1470157057 -0.97814762592
          -0.19208537042 0.079564347863 0.97814762592 -0.37577569485 0.15565134585 0.91354542971
          -0.54304277897 0.22493563592 0.80901700258 -0.68657630682 0.28438916802 0.66913056374
          -0.80010318756 0.33141350746 0.4999999702 -0.87866169214 0.36395350099 0.30901697278
          -0.91881847382 0.38058698177 0.10452841967 -0.91881847382 0.38058698177 -0.10452850908
          -0.87866169214 0.36395350099 -0.30901703238 -0.80010312796 0.33141350746 -0.5000000596
          -0.68657624722 0.28438913822 -0.66913068295 -0.54304271936 0.22493562102 -0.80901706219
          -0.37577560544 0.15565131605 -0.91354548931 -0.19208528101 0.07956431061 -0.97814762592
          -0.20791170001 -1.8176217864e-08 0.97814762592 -0.40673664212 -3.555804895e-08 0.91354542971
          -0.58778524399 -5.138582182e-08 0.80901700258 -0.7431448698 -6.4967785818e-08 0.66913056374
          -0.86602544785 -7.5710346437e-08 0.4999999702 -0.95105654001 -8.3144009011e-08 0.30901697278
          -0.99452191591 -8.694387077e-08 0.10452841967 -0.99452191591 -8.694387077e-08 -0.10452850908
          -0.95105648041 -8.3144001906e-08 -0.30901703238 -0.86602538824 -7.5710346437e-08 -0.5000000596
          -0.7431448102 -6.4967785818e-08 -0.66913068295 -0.58778518438 -5.1385814714e-08 -0.80901706219
          -0.40673658252 -3.5558041844e-08 -0.91354548931 -0.2079116106 -1.8176210759e-08 -0.97814762592
          -0.19208535552 -0.079564377666 0.97814762592 -0.37577566504 -0.15565142035 0.91354542971
          -0.54304277897 -0.22493574023 0.80901700258 -0.68657630682 -0.28438928723 0.66913056374
          -0.80010312796 -0.33141365647 0.4999999702 -0.87866163254 -0.36395365 0.30901697278
          -0.91881841421 -0.38058713078 0.10452841967 -0.91881835461 -0.38058713078 -0.10452850908
          -0.87866157293 -0.36395365 -0.30901703238 -0.80010306835 -0.33141365647 -0.5000000596
          -0.68657624722 -0.28438925743 -0.66913068295 -0.54304271936 -0.22493571043 -0.80901706219
          -0.37577557564 -0.15565139055 -0.91354548931 -0.19208528101 -0.079564347863 -0.97814762592
          -0.14701575041 -0.14701578021 0.97814762592 -0.28760620952 -0.28760626912 0.91354542971
          -0.41562691331 -0.41562700272 0.80901700258 -0.52548271418 -0.52548283339 0.66913056374
          -0.61237239838 -0.61237251759 0.4999999702 -0.67249846458 -0.67249858379 0.30901697278
          -0.70323312283 -0.70323324203 0.10452841967 -0.70323312283 -0.70323324203 -0.10452850908
          -0.67249840498 -0.67249858379 -0.30901703238 -0.61237233877 -0.61237245798 -0.5000000596
          -0.52548265457 -0.52548277378 -0.66913068295 -0.4156268537 -0.41562694311 -0.80901706219
          -0.28760614991 -0.28760620952 -0.91354548931 -0.1470156908 -0.14701572061 -0.97814762592
          -0.079564340413 -0.19208537042 0.97814762592 -0.15565133095 -0.37577569485 0.91354542971
          -0.22493562102 -0.54304277897 0.80901700258 -0.28438913822 -0.68657636642 0.66913056374
          -0.33141347766 -0.80010318756 0.4999999702 -0.36395347118 -0.87866169214 0.30901697278
          -0.38058695197 -0.91881847382 0.10452841967 -0.38058695197 -0.91881847382 -0.10452850908
          -0.36395347118 -0.87866169214 -0.30901703238 -0.33141347766 -0.80010318756 -0.5000000596
          -0.28438910842 -0.68657630682 -0.66913068295 -0.22493559122 -0.54304271936 -0.80901706219
          -0.15565130115 -0.37577560544 -0.91354548931 -0.07956430316 -0.19208529592 -0.97814762592
          2.7264327684e-08 -0.20791170001 0.97814762592 5.3337075201e-08 -0.40673664212 0.91354542971
          7.7078730953e-08 -0.58778524399 0.80901700258 9.7451682279e-08 -0.7431448698 0.66913056374
          1.1356552676e-07 -0.86602544785 0.4999999702 1.2471600996e-07 -0.95105654001 0.30901697278
          1.3041579905e-07 -0.99452191591 0.10452841967 1.3041579905e-07 -0.99452191591 -0.10452850908
          1.2471600996e-07 -0.95105648041 -0.30901703238 1.1356551965e-07 -0.86602538824 -0.5000000596
          9.7451675174e-08 -0.7431448102 -0.66913068295 7.7078723848e-08 -0.58778518438 -0.80901706219
          5.3337064543e-08 -0.40673658252 -0.91354548931 2.7264317026e-08 -0.2079116106 -0.97814762592
          0.079564392567 -0.19208535552 0.97814762592 0.15565143526 -0.37577563524 0.91354542971
          0.22493575513 -0.54304271936 0.80901700258 0.28438931704 -0.68657624722 0.66913056374
          0.33141368628 -0.80010312796 0.4999999702 0.3639537096 -0.87866163254 0.30901697278
          0.38058719039 -0.91881835461 0.10452841967 0.38058719039 -0.91881835461 -0.10452850908
          0.3639536798 -0.87866157293 -0.30901703238 0.33141368628 -0.80010306835 -0.5000000596
          0.28438928723 -0.68657618761 -0.66913068295 0.22493574023 -0.54304265976 -0.80901706219
          0.15565140545 -0.37577557564 -0.91354548931 0.079564355314 -0.19208526611 -0.97814762592
          0.14701579511 -0.14701575041 0.97814762592 0.28760629892 -0.28760620952 0.91354542971
          0.41562700272 -0.41562688351 0.80901700258 0.52548283339 -0.52548265457 0.66913056374
          0.61237251759 -0.61237233877 0.4999999702 0.6724986434 -0.67249840498 0.30901697278
          0.70323330164 -0.70323306322 0.10452841967 0.70323330164 -0.70323306322 -0.10452850908
          0.67249858379 -0.67249840498 -0.30901703238 0.61237251759 -0.61237233877 -0.5000000596
          0.52548277378 -0.52548265457 -0.66913068295 0.41562697291 -0.4156268239 -0.80901706219
          0.28760623932 -0.28760614991 -0.91354548931 0.14701573551 -0.1470156908 -0.97814762592
          0.19208537042 -0.079564332962 0.97814762592 0.37577569485 -0.15565131605 0.91354542971
          0.54304283857 -0.22493559122 0.80901700258 0.68657636642 -0.28438910842 0.66913056374
          0.80010318756 -0.33141344786 0.4999999702 0.87866169214 -0.36395344138 0.30901697278
          0.91881847382 -0.38058689237 0.10452841967 0.91881847382 -0.38058689237 -0.10452850908
          0.87866169214 -0.36395341158 -0.30901703238 0.80010318756 -0.33141341805 -0.5000000596
          0.68657630682 -0.28438907862 -0.66913068295 0.54304271936 -0.22493556142 -0.80901706219
          0.37577563524 -0.15565128624 -0.91354548931 0.19208529592 -0.079564295709 -0.97814762592
        </DataArray>
      </PointData>
      <CellData>
      </CellData>
      <Points>
        <DataArray type="Float32" Name="Points" NumberOfComponents="3" format="ascii" RangeMin="0.99999996765" RangeMax="1.0000000399">
          0 0 1 0 0 -1
          0.20791170001 0 0.97814762592 0.40673664212 0 0.91354542971
          0.58778524399 0 0.80901700258 0.7431448698 0 0.66913056374
          0.86602544785 0 0.4999999702 0.95105654001 0 0.30901697278
          0.99452191591 0 0.10452841967 0.99452191591 0 -0.10452850908
          0.95105648041 0 -0.30901703238 0.86602538824 0 -0.5000000596
          0.7431448102 0 -0.66913068295 0.58778518438 0 -0.80901706219
          0.40673658252 0 -0.91354548931 0.2079116106 0 -0.97814762592
          0.19208535552 0.079564362764 0.97814762592 0.37577566504 0.15565137565 0.91354542971
          0.54304277897 0.22493569553 0.80901700258 0.68657630682 0.28438922763 0.66913056374
          0.80010312796 0.33141359687 0.4999999702 0.87866163254 0.36395359039 0.30901697278
          0.91881841421 0.38058707118 0.10452841967 0.91881841421 0.38058707118 -0.10452850908
          0.87866163254 0.36395356059 -0.30901703238 0.80010312796 0.33141356707 -0.5000000596
          0.68657624722 0.28438919783 -0.66913068295 0.54304271936 0.22493566573 -0.80901706219
          0.37577560544 0.15565134585 -0.91354548931 0.19208528101 0.079564332962 -0.97814762592
          0.14701576531 0.14701578021 0.97814762592 0.28760623932 0.28760623932 0.91354542971
          0.41562694311 0.41562694311 0.80901700258 0.52548277378 0.52548277378 0.66913056374
          0.61237245798 0.61237245798 0.4999999702 0.67249852419 0.67249852419 0.30901697278
          0.70323318243 0.70323318243 0.10452841967 0.70323318243 0.70323318243 -0.10452850908
          0.67249846458 0.67249852419 -0.30901703238 0.61237239838 0.61237245798 -0.5000000596
          0.52548271418 0.52548271418 -0.66913068295 0.41562688351 0.41562691331 -0.80901706219
          0.28760617971 0.28760620952 -0.91354548931 0.1470157057 0.14701572061 -0.97814762592
          0.079564355314 0.19208537042 0.97814762592 0.15565136075 0.37577566504 0.91354542971
          0.22493566573 0.54304277897 0.80901700258 0.28438919783 0.68657630682 0.66913056374
          0.33141356707 0.80010318756 0.4999999702 0.36395356059 0.87866169214 0.30901697278
          0.38058701158 0.91881841421 0.10452841967 0.38058701158 0.91881841421 -0.10452850908
          0.36395353079 0.87866163254 -0.30901703238 0.33141353726 0.80010312796 -0.5000000596
          0.28438916802 0.68657624722 -0.66913068295 0.22493563592 0.54304271936 -0.80901706219
          0.15565133095 0.37577560544 -0.91354548931 0.079564325511 0.19208528101 -0.97814762592
          -9.0881089321e-09 0.20791170001 0.97814762592 -1.7779024475e-08 0.40673664212 0.91354542971
          -2.569291091e-08 0.58778524399 0.80901700258 -3.2483892909e-08 0.7431448698 0.66913056374
          -3.7855173218e-08 0.86602544785 0.4999999702 -4.1572004505e-08 0.95105654001 0.30901697278
          -4.3471935385e-08 0.99452191591 0.10452841967 -4.3471935385e-08 0.99452191591 -0.10452850908
          -4.1572000953e-08 0.95105648041 -0.30901703238 -3.7855173218e-08 0.86602538824 -0.5000000596
          -3.2483892909e-08 0.7431448102 -0.66913068295 -2.5692907357e-08 0.58778518438 -0.80901706219
          -1.7779020922e-08 0.40673658252 -0.91354548931 -9.0881053794e-09 0.2079116106 -0.97814762592
          -0.079564370215 0.19208535552 0.97814762592 -0.15565140545 0.37577566504 0.91354542971
          -0.22493571043 0.54304277897 0.80901700258 -0.28438925743 0.68657630682 0.66913056374
          -0.33141362667 0.80010312796 0.4999999702 -0.3639536202 0.87866163254 0.30901697278
          -0.38058710098 0.91881841421 0.10452841967 -0.38058710098 0.91881841421 -0.10452850908
          -0.3639536202 0.87866163254 -0.30901703238 -0.33141359687 0.80010312796 -0.5000000596
          -0.28438922763 0.68657624722 -0.66913068295 -0.22493568063 0.54304271936 -0.80901706219
          -0.15565137565 0.37577557564 -0.91354548931 -0.079564340413 0.19208528101 -0.97814762592
          -0.14701578021 0.14701576531 0.97814762592 -0.28760626912 0.28760623932 0.91354542971
          -0.41562697291 0.41562691331 0.80901700258 -0.52548277378 0.52548271418 0.66913056374
          -0.61237245798 0.61237239838 0.4999999702 -0.67249858379 0.67249846458 0.30901697278
          -0.70323324203 0.70323312283 0.10452841967 -0.70323324203 0.70323312283 -0.10452850908
          -0.67249852419 0.67249846458 -0.30901703238 -0.61237245798 0.61237239838 -0.5000000596
          -0.52548277378 0.52548265457 -0.66913068295 -0.41562691331 0.41562688351 -0.80901706219
          -0.28760620952 0.28760617971 -0.91354548931 -0.14701572061 0.1470157057 -0.97814762592
          -0.19208537042 0.079564347863 0.97814762592 -0.37577569485 0.15565134585 0.91354542971
          -0.54304277897 0.22493563592 0.80901700258 -0.68657630682 0.28438916802 0.66913056374
          -0.80010318756 0.33141350746 0.4999999702 -0.87866169214 0.36395350099 0.30901697278
          -0.91881847382 0.38058698177 0.10452841967 -0.91881847382 0.38058698177 -0.10452850908
          -0.87866169214 0.36395350099 -0.30901703238 -0.80010312796 0.33141350746 -0.5000000596
          -0.68657624722 0.28438913822 -0.66913068295 -0.54304271936 0.22493562102 -0.80901706219
          -0.37577560544 0.15565131605 -0.91354548931 -0.19208528101 0.07956431061 -0.97814762592
          -0.20791170001 -1.8176217864e-08 0.97814762592 -0.40673664212 -3.555804895e-08 0.91354542971
          -0.58778524399 -5.138582182e-08 0.80901700258 -0.7431448698 -6.4967785818e-08 0.66913056374
          -0.86602544785 -7.5710346437e-08 0.4999999702 -0.95105654001 -8.3144009011e-08 0.30901697278
          -0.99452191591 -8.694387077e-08 0.10452841967 -0.99452191591 -8.694387077e-08 -0.10452850908
          -0.95105648041 -8.3144001906e-08 -0.30901703238 -0.86602538824 -7.5710346437e-08 -0.5000000596
          -0.7431448102 -6.4967785818e-08 -0.66913068295 -0.58778518438 -5.1385814714e-08 -0.80901706219
          -0.40673658252 -3.5558041844e-08 -0.91354548931 -0.2079116106 -1.8176210759e-08 -0.97814762592
          -0.19208535552 -0.079564377666 0.97814762592 -0.37577566504 -0.15565142035 0.91354542971
          -0.54304277897 -0.22493574023 0.80901700258 -0.68657630682 -0.28438928723 0.66913056374
          -0.80010312796 -0.33141365647 0.4999999702 -0.87866163254 -0.36395365 0.30901697278
          -0.91881841421 -0.38058713078 0.10452841967 -0.91881835461 -0.38058713078 -0.10452850908
          -0.87866157293 -0.36395365 -0.30901703238 -0.80010306835 -0.33141365647 -0.5000000596
          -0.68657624722 -0.28438925743 -0.66913068295 -0.54304271936 -0.22493571043 -0.80901706219
          -0.37577557564 -0.15565139055 -0.91354548931 -0.19208528101 -0.079564347863 -0.97814762592
          -0.14701575041 -0.14701578021 0.97814762592 -0.28760620952 -0.28760626912 0.91354542971
          -0.41562691331 -0.41562700272 0.80901700258 -0.52548271418 -0.52548283339 0.66913056374
          -0.61237239838 -0.61237251759 0.4999999702 -0.67249846458 -0.67249858379 0.30901697278
          -0.70323312283 -0.70323324203 0.10452841967 -0.70323312283 -0.70323324203 -0.10452850908
          -0.67249840498 -0.67249858379 -0.30901703238 -0.61237233877 -0.61237245798 -0.5000000596
          -0.52548265457 -0.52548277378 -0.66913068295 -0.4156268537 -0.41562694311 -0.80901706219
          -0.28760614991 -0.28760620952 -0.91354548931 -0.1470156908 -0.14701572061 -0.97814762592
          -0.079564340413 -0.19208537042 0.97814762592 -0.15565133095 -0.37577569485 0.91354542971
          -0.22493562102 -0.54304277897 0.80901700258 -0.28438913822 -0.68657636642 0.66913056374
          -0.33141347766 -0.80010318756 0.4999999702 -0.36395347118 -0.87866169214 0.30901697278
          -0.38058695197 -0.91881847382 0.10452841967 -0.38058695197 -0.91881847382 -0.10452850908
          -0.36395347118 -0.87866169214 -0.30901703238 -0.33141347766 -0.80010318756 -0.5000000596
          -0.28438910842 -0.68657630682 -0.66913068295 -0.22493559122 -0.54304271936 -0.80901706219
          -0.15565130115 -0.37577560544 -0.91354548931 -0.07956430316 -0.19208529592 -0.97814762592
          2.7264327684e-08 -0.20791170001 0.97814762592 5.3337075201e-08 -0.40673664212 0.91354542971
          7.7078730953e-08 -0.58778524399 0.80901700258 9.7451682279e-08 -0.7431448698 0.66913056374
          1.1356552676e-07 -0.86602544785 0.4999999702 1.2471600996e-07 -0.95105654001 0.30901697278
          1.3041579905e-07 -0.99452191591 0.10452841967 1.3041579905e-07 -0.99452191591 -0.10452850908
          1.2471600996e-07 -0.95105648041 -0.30901703238 1.1356551965e-07 -0.86602538824 -0.5000000596
          9.7451675174e-08 -0.7431448102 -0.66913068295 7.7078723848e-08 -0.58778518438 -0.80901706219
          5.3337064543e-08 -0.40673658252 -0.91354548931 2.7264317026e-08 -0.2079116106 -0.97814762592
          0.079564392567 -0.19208535552 0.97814762592 0.15565143526 -0.37577563524 0.91354542971
          0.22493575513 -0.54304271936 0.80901700258 0.28438931704 -0.68657624722 0.66913056374
          0.33141368628 -0.80010312796 0.4999999702 0.3639537096 -0.87866163254 0.30901697278
          0.38058719039 -0.91881835461 0.10452841967 0.38058719039 -0.91881835461 -0.10452850908
          0.3639536798 -0.87866157293 -0.30901703238 0.33141368628 -0.80010306835 -0.5000000596
          0.28438928723 -0.68657618761 -0.66913068295 0.22493574023 -0.54304265976 -0.80901706219
          0.15565140545 -0.37577557564 -0.91354548931 0.079564355314 -0.19208526611 -0.97814762592
          0.14701579511 -0.14701575041 0.97814762592 0.28760629892 -0.28760620952 0.91354542971
          0.41562700272 -0.41562688351 0.80901700258 0.52548283339 -0.52548265457 0.66913056374
          0.61237251759 -0.61237233877 0.4999999702 0.6724986434 -0.67249840498 0.30901697278
          0.70323330164 -0.70323306322 0.10452841967 0.70323330164 -0.70323306322 -0.10452850908
          0.67249858379 -0.67249840498 -0.30901703238 0.61237251759 -0.61237233877 -0.5000000596
          0.52548277378 -0.52548265457 -0.66913068295 0.41562697291 -0.4156268239 -0.80901706219
          0.28760623932 -0.28760614991 -0.91354548931 0.14701573551 -0.1470156908 -0.97814762592
          0.19208537042 -0.079564332962 0.97814762592 0.37577569485 -0.15565131605 0.91354542971
          0.54304283857 -0.22493559122 0.80901700258 0.68657636642 -0.28438910842 0.66913056374
          0.80010318756 -0.33141344786 0.4999999702 0.87866169214 -0.36395344138 0.30901697278
          0.91881847382 -0.38058689237 0.10452841967 0.91881847382 -0.38058689237 -0.10452850908
          0.87866169214 -0.36395341158 -0.30901703238 0.80010318756 -0.33141341805 -0.5000000596
          0.68657630682 -0.28438907862 -0.66913068295 0.54304271936 -0.22493556142 -0.80901706219
          0.37577563524 -0.15565128624 -0.91354548931 0.19208529592 -0.079564295709 -0.97814762592
        </DataArray>
      </Points>
      <Verts>
        <DataArray type="Int32" Name="connectivity" format="ascii" RangeMin="1e+299" RangeMax="-1e+299">
        </DataArray>
        <DataArray type="Int32" Name="offsets" format="ascii" RangeMin="1e+299" RangeMax="-1e+299">
        </DataArray>
      </Verts>
      <Lines>
        <DataArray type="Int32" Name="connectivity" format="ascii" RangeMin="1e+299" RangeMax="-1e+299">
        </DataArray>
        <DataArray type="Int32" Name="offsets" format="ascii" RangeMin="1e+299" RangeMax="-1e+299">
        </DataArray>
      </Lines>
      <Strips>
        <DataArray type="Int32" Name="connectivity" format="ascii" RangeMin="1e+299" RangeMax="-1e+299">
        </DataArray>
        <DataArray type="Int32" Name="offsets" format="ascii" RangeMin="1e+299" RangeMax="-1e+299">
        </DataArray>
      </Strips>
      <Polys>
        <DataArray type="Int32" Name="connectivity" format="ascii" RangeMin="0" RangeMax="225">
          2 16 0 16 30 0
          30 44 0 44 58 0
          58 72 0 72 86 0
          86 100 0 100 114 0
          114 128 0 128 142 0
          142 156 0 156 170 0
          170 184 0 184 198 0
          198 212 0 212 2 0
          15 1 29 29 1 43
          43 1 57 57 1 71
          71 1 85 85 1 99
          99 1 113 113 1 127
          127 1 141 141 1 155
          155 1 169 169 1 183
          183 1 197 197 1 211
          211 1 225 225 1 15
          2 3 17 2 17 16
          3 4 18 3 18 17
          4 5 19 4 19 18
          5 6 20 5 20 19
          6 7 21 6 21 20
          7 8 22 7 22 21
          8 9 23 8 23 22
          9 10 24 9 24 23
          10 11 25 10 25 24
          11 12 26 11 26 25
          12 13 27 12 27 26
          13 14 28 13 28 27
          14 15 29 14 29 28
          16 17 31 16 31 30
          17 18 32 17 32 31
          18 19 33 18 33 32
          19 20 34 19 34 33
          20 21 35 20 35 34
          21 22 36 21 36 35
          22 23 37 22 37 36
          23 24 38 23 38 37
          24 25 39 24 39 38
          25 26 40 25 40 39
          26 27 41 26 41 40
          27 28 42 27 42 41
          28 29 43 28 43 42
          30 31 45 30 45 44
          31 32 46 31 46 45
          32 33 47 32 47 46
          33 34 48 33 48 47
          34 35 49 34 49 48
          35 36 50 35 50 49
          36 37 51 36 51 50
          37 38 52 37 52 51
          38 39 53 38 53 52
          39 40 54 39 54 53
          40 41 55 40 55 54
          41 42 56 41 56 55
          42 43 57 42 57 56
          44 45 59 44 59 58
          45 46 60 45 60 59
          46 47 61 46 61 60
          47 48 62 47 62 61
          48 49 63 48 63 62
          49 50 64 49 64 63
          50 51 65 50 65 64
          51 52 66 51 66 65
          52 53 67 52 67 66
          53 54 68 53 68 67
          54 55 69 54 69 68
          55 56 70 55 70 69
          56 57 71 56 71 70
          58 59 73 58 73 72
          59 60 74 59 74 73
          60 61 75 60 75 74
          61 62 76 61 76 75
          62 63 77 62 77 76
          63 64 78 63 78 77
          64 65 79 64 79 78
          65 66 80 65 80 79
          66 67 81 66 81 80
          67 68 82 67 82 81
          68 69 83 68 83 82
          69 70 84 69 84 83
          70 71 85 70 85 84
          72 73 87 72 87 86
          73 74 88 73 88 87
          74 75 89 74 89 88
          75 76 90 75 90 89
          76 77 91 76 91 90
          77 78 92 77 92 91
          78 79 93 78 93 92
          79 80 94 79 94 93
          80 81 95 80 95 94
          81 82 96 81 96 95
          82 83 97 82 97 96
          83 84 98 83 98 97
          84 85 99 84 99 98
          86 87 101 86 101 100
          87 88 102 87 102 101
          88 89 103 88 103 102
          89 90 104 89 104 103
          90 91 105 90 105 104
          91 92 106 91 106 105
          92 93 107 92 107 106
          93 94 108 93 108 107
          94 95 109 94 109 108
          95 96 110 95 110 109
          96 97 111 96 111 110
          97 98 112 97 112 111
          98 99 113 98 113 112
          100 101 115 100 115 114
          101 102 116 101 116 115
          102 103 117 102 117 116
          103 104 118 103 118 117
          104 105 119 104 119 118
          105 106 120 105 120 119
          106 107 121 106 121 120
          107 108 122 107 122 121
          108 109 123 108 123 122
          109 110 124 109 124 123
          110 111 125 110 125 124
          111 112 126 111 126 125
          112 113 127 112 127 126
          114 115 129 114 129 128
          115 116 130 115 130 129
          116 117 131 116 131 130
          117 118 132 117 132 131
          118 119 133 118 133 132
          119 120 134 119 134 133
          120 121 135 120 135 134
          121 122 136 121 136 135
          122 123 137 122 137 136
          123 124 138 123 138 137
          124 125 139 124 139 138
          125 126 140 125 140 139
          126 127 141 126 141 140
          128 129 143 128 143 142
          129 130 144 129 144 143
          130 131 145 130 145 144
          131 132 146 131 146 145
          132 133 147 132 147 146
          133 134 148 133 148 147
          134 135 149 134 149 148
          135 136 150 135 150 149
          136 137 151 136 151 150
          137 138 152 137 152 151
          138 139 153 138 153 152
          139 140 154 139 154 153
          140 141 155 140 155 154
          142 143 157 142 157 156
          143 144 158 143 158 157
          144 145 159 144 159 158
          145 146 160 145 160 159
          146 147 161 146 161 160
          147 148 162 147 162 161
          148 149 163 148 163 162
          149 150 164 149 164 163
          150 151 165 150 165 164
          151 152 166 151 166 165
          152 153 167 152 167 166
          153 154 168 153 168 167
          154 155 169 154 169 168
          156 157 171 156 171 170
          157 158 172 157 172 171
          158 159 173 158 173 172
          159 160 174 159 174 173
          160 161 175 160 175 174
          161 162 176 161 176 175
          162 163 177 162 177 176
          163 164 178 163 178 177
          164 165 179 164 179 178
          165 166 180 165 180 179
          166 167 181 166 181 180
          167 168 182 167 182 181
          168 169 183 168 183 182
          170 171 185 170 185 184
          171 172 186 171 186 185
          172 173 187 172 187 186
          173 174 188 173 188 187
          174 175 189 174 189 188
          175 176 190 175 190 189
          176 177 191 176 191 190
          177 178 192 177 192 191
          178 179 193 178 193 192
          179 180 194 179 194 193
          180 181 195 180 195 194
          181 182 196 181 196 195
          182 183 197 182 197 196
          184 185 199 184 199 198
          185 186 200 185 200 199
          186 187 201 186 201 200
          187 188 202 187 202 201
          188 189 203 188 203 202
          189 190 204 189 204 203
          190 191 205 190 205 204
          191 192 206 191 206 205
          192 193 207 192 207 206
          193 194 208 193 208 207
          194 195 209 194 209 208
          195 196 210 195 210 209
          196 197 211 196 211 210
          198 199 213 198 213 212
          199 200 214 199 214 213
          200 201 215 200 215 214
          201 202 216 201 216 215
          202 203 217 202 217 216
          203 204 218 203 218 217
          204 205 219 204 219 218
          205 206 220 205 220 219
          206 207 221 206 221 220
          207 208 222 207 222 221
          208 209 223 208 223 222
          209 210 224 209 224 223
          210 211 225 210 225 224
          212 213 3 212 3 2
          213 214 4 213 4 3
          214 215 5 214 5 4
          215 216 6 215 6 5
          216 217 7 216 7 6
          217 218 8 217 8 7
          218 219 9 218 9 8
          219 220 10 219 10 9
          220 221 11 220 11 10
          221 222 12 221 12 11