<VTKFile type="PolyData" version="0.1" byte_order="LittleEndian">
  <PolyData>
    <Piece NumberOfPoints="84" NumberOfVerts="0" NumberOfLines="0" NumberOfStrips="0" NumberOfPolys="144">
      <PointData Normals="Normals">
        <DataArray type="Float32" Name="Normals" NumberOfComponents="3" format="ascii" RangeMin="0.9999999726" RangeMax="1.000000033">
          -1 0 2.2204460493e-16 1 0 -2.2204460493e-16
          -0.91516661644 0.37876731157 0.13786001503 -0.71995013952 0.65217095613 0.23737078905
          -0.50020760298 0.81368499994 0.29615712166 -0.29125672579 0.89895218611 0.32719179988
          -0.095414847136 0.93540537357 0.3404597044 0.09541490674 0.93540537357 0.3404596746
          0.29125678539 0.89895218611 0.32719179988 0.50020766258 0.81368499994 0.29615706205
          0.71995019913 0.65217083693 0.23737075925 0.91516667604 0.37876722217 0.13785998523
          -0.29125669599 0.95624023676 0.027823707089 -0.095414847136 0.99501645565 0.028951978311
          0.09541490674 0.99501645565 0.028951978311 0.29125678539 0.95624017715 0.027823707089
          0.71995019913 0.69373214245 0.020185513422 -0.71995013952 0.66486942768 -0.19904887676
          -0.50020760298 0.82952839136 -0.2483445406 -0.095414847136 0.95361876488 -0.28549477458
          0.09541490674 0.95361876488 -0.28549477458 0.50020766258 0.82952833176 -0.24834452569
          -0.29125669599 0.78363764286 -0.54870903492 -0.095414847136 0.81541472673 -0.57095962763
          0.29125678539 0.78363758326 -0.54870903492 0.71995019913 0.56851255894 -0.39807683229
          -0.71995013952 0.41444343328 -0.55669420958 -0.50020760298 0.51708287001 -0.69456297159
          -0.29125672579 0.57126867771 -0.7673470974 0.09541490674 0.5944340229 -0.7984636426
          0.50020766258 0.51708287001 -0.69456291199 -0.91516661644 0.12678533792 -0.38261669874
          -0.29125672579 0.30090758204 -0.90808820724 -0.095414847136 0.3131096065 -0.94491183758
          0.09541490674 0.3131096065 -0.94491183758 0.29125678539 0.30090758204 -0.90808814764
          0.50020766258 0.2723659575 -0.82195442915 -0.50020760298 -7.5699865931e-08 -0.8659055233
          -0.29125669599 -8.363255688e-08 -0.9566449523 -0.095414847136 -8.7023920514e-08 -0.99543762207
          0.09541490674 -8.7023920514e-08 -0.99543756247 0.29125678539 -8.363255688e-08 -0.95664489269
          0.71995019913 -6.0673656321e-08 -0.69402575493 0.91516667604 -3.523799208e-08 -0.40307563543
          -0.71995013952 -0.21830224991 -0.65879887342 -0.29125669599 -0.30090773106 -0.90808814764
          -0.095414847136 -0.31310975552 -0.94491177797 0.09541490674 -0.31310975552 -0.94491177797
          0.29125678539 -0.30090773106 -0.90808808804 0.50020766258 -0.27236610651 -0.82195436954
          -0.91516661644 -0.2407001853 -0.32331636548 -0.50020760298 -0.51708298922 -0.69456285238
          -0.29125672579 -0.57126885653 -0.76734703779 -0.095414847136 -0.59443420172 -0.79846352339
          0.09541490674 -0.59443420172 -0.79846352339 0.29125678539 -0.57126885653 -0.76734697819
          0.71995019913 -0.41444349289 -0.55669409037 -0.71995013952 -0.56851267815 -0.39807680249
          -0.29125672579 -0.78363770247 -0.54870891571 -0.095414847136 -0.81541478634 -0.57095944881
          0.09541490674 -0.81541478634 -0.57095944881 0.29125678539 -0.78363770247 -0.54870885611
          0.50020766258 -0.70930826664 -0.49666291475 0.91516667604 -0.33018025756 -0.23119466007
          -0.50020760298 -0.82952845097 -0.24834439158 -0.29125672579 -0.91645586491 -0.27436876297
          -0.095414847136 -0.95361882448 -0.28549459577 0.29125678539 -0.9164558053 -0.27436873317
          0.71995019913 -0.66486936808 -0.19904875755 -0.71995013952 -0.69373220205 0.020185636356
          -0.29125672579 -0.95624023676 0.027823874727 -0.095414847136 -0.99501645565 0.0289521534
          0.09541490674 -0.99501645565 0.0289521534 0.50020766258 -0.86553913355 0.02518473193
          -0.91516661644 -0.37876728177 0.13786007464 -0.71995013952 -0.65217089653 0.23737087846
          -0.50020760298 -0.81368499994 0.29615724087 -0.29125672579 -0.8989521265 0.32719197869
          -0.095414847136 -0.93540531397 0.34045985341 0.09541490674 -0.93540531397 0.34045985341
          0.29125678539 -0.8989521265 0.32719194889 0.50020766258 -0.81368494034 0.29615721107
          0.71995019913 -0.65217077732 0.23737087846 0.91516667604 -0.37876722217 0.13786004484
        </DataArray>
      </PointData>
      <CellData>
      </CellData>
      <Points>
        <DataArray type="Float32" Name="Points" NumberOfComponents="3" format="ascii" RangeMin="6.0754758159" RangeMax="9">
          -9 0 1.9984014443e-15 9 0 -1.9984014443e-15
          -8.6354370117 1.5884521008 0.57814919949 -7.5712814331 3.0482172966 1.1094602346
          -5.893746376 4.2610340118 1.5508893728 -3.7387347221 5.1286468506 1.8666746616
          -1.2808332443 5.5807676315 2.0312330723 1.2808339596 5.5807676315 2.0312330723
          3.7387354374 5.1286468506 1.8666745424 5.8937468529 4.261033535 1.5508892536
          7.5712823868 3.0482168198 1.1094601154 8.6354370117 1.5884516239 0.57814902067
          -3.7387347221 5.4554829597 0.15873810649 -1.2808332443 5.9364161491 0.17273181677
          1.2808339596 5.9364161491 0.17273181677 3.7387354374 5.4554829597 0.15873810649
          7.5712823868 3.2424721718 0.094346165657 -7.5712814331 3.1075694561 -0.93034541607
          -5.893746376 4.3440008163 -1.3005087376 -1.2808332443 5.6894311905 -1.7033042908
          1.2808339596 5.6894311905 -1.7033041716 5.8937468529 4.3440008163 -1.3005087376
          -3.7387347221 4.4707612991 -3.130461216 -1.2808332443 4.8648853302 -3.4064297676
          3.7387354374 4.4707612991 -3.1304609776 7.5712823868 2.657201767 -1.8605929613
          -7.5712819099 1.9370896816 -2.6019635201 -5.8937468529 2.7078139782 -3.6372258663
          -3.7387347221 3.2591671944 -4.3778219223 1.2808339596 3.5464818478 -4.7637524605
          5.8937468529 2.7078137398 -3.6372256279 -8.6354370117 0.53170490265 -1.6045954227
          -3.7387347221 1.7167195082 -5.1807689667 -1.2808332443 1.8680584431 -5.6374845505
          1.2808339596 1.8680584431 -5.6374845505 3.7387354374 1.716719389 -5.1807689667
          5.8937468529 1.4263019562 -4.3043384552 -5.8937468529 -3.9641838612e-07 -4.5344977379
          -3.7387347221 -4.7713535878e-07 -5.4577922821 -1.2808332443 -5.1919766975e-07 -5.9389286041
          1.2808339596 -5.1919766975e-07 -5.9389286041 3.7387354374 -4.7713535878e-07 -5.4577918053
          7.5712823868 -2.8358590498e-07 -3.2438445091 8.6354370117 -1.4777901924e-07 -1.6903948784
          -7.5712819099 -1.0203347206 -3.0791959763 -3.7387347221 -1.7167203426 -5.1807689667
          -1.2808332443 -1.8680593967 -5.6374840736 1.2808339596 -1.8680593967 -5.6374840736
          3.7387354374 -1.7167203426 -5.1807684898 5.8937468529 -1.4263026714 -4.3043379784
          -8.6354370117 -1.0094342232 -1.3559052944 -5.8937468529 -2.707814455 -3.6372253895
          -3.7387347221 -3.2591679096 -4.3778214455 -1.2808332443 -3.5464828014 -4.7637519836
          1.2808339596 -3.5464828014 -4.7637519836 3.7387354374 -3.2591676712 -4.3778209686
          7.5712823868 -1.93708992 -2.6019628048 -7.5712814331 -2.6572024822 -1.8605927229
          -3.7387347221 -4.470761776 -3.1304605007 -1.2808332443 -4.864885807 -3.4064290524
          1.2808339596 -4.864885807 -3.4064290524 3.7387354374 -4.470761776 -3.1304602623
          5.8937468529 -3.7144429684 -2.6008803844 8.6354370117 -1.3846905231 -0.96957051754
          -5.893746376 -4.3440012932 -1.3005080223 -3.7387347221 -5.2285075188 -1.5653117895
          -1.2808332443 -5.6894316673 -1.7033032179 3.7387354374 -5.2285075188 -1.5653116703
          7.5712823868 -3.1075692177 -0.93034470081 -7.5712814331 -3.2424726486 0.094346746802
          -3.7387347221 -5.4554829597 0.15873906016 -1.2808332443 -5.9364161491 0.17273285985
          1.2808339596 -5.9364161491 0.17273284495 5.8937468529 -4.5325789452 0.13188517094
          -8.6354370117 -1.5884519815 0.57814949751 -7.5712814331 -3.0482170582 1.1094607115
          -5.893746376 -4.261033535 1.5508900881 -3.7387347221 -5.1286468506 1.8666754961
          -1.2808332443 -5.5807671547 2.031234026 1.2808339596 -5.5807671547 2.031234026
          3.7387354374 -5.1286463737 1.8666754961 5.8937468529 -4.261033535 1.5508899689
          7.5712823868 -3.0482165813 1.1094605923 8.6354370117 -1.5884515047 0.5781493187
        </DataArray>
      </Points>
      <Verts>
        <DataArray type="Int32" Name="connectivity" format="ascii" RangeMin="1e+299" RangeMax="-1e+299">
        </DataArray>
        <DataArray type="Int32" Name="offsets" format="ascii" RangeMin="1e+299" RangeMax="-1e+299">
        </DataArray>
      </Verts>
      <Lines>
        <DataArray type="Int32" Name="connectivity" format="ascii" RangeMin="1e+299" RangeMax="-1e+299">
        </DataArray>
        <DataArray type="Int32" Name="offsets" format="ascii" RangeMin="1e+299" RangeMax="-1e+299">
        </DataArray>
      </Lines>
      <Strips>
        <DataArray type="Int32" Name="connectivity" format="ascii" RangeMin="1e+299" RangeMax="-1e+299">
        </DataArray>
        <DataArray type="Int32" Name="offsets" format="ascii" RangeMin="1e+299" RangeMax="-1e+299">
        </DataArray>
      </Strips>
      <Polys>
        <DataArray type="Int32" Name="connectivity" format="ascii" RangeMin="0" RangeMax="83">
          2 31 0 31 50 0
          50 74 0 11 1 43
          43 1 63 63 1 83
          3 4 18 4 5 12
          4 12 18 5 6 13
          5 13 12 6 7 14
          6 14 13 7 8 15
          7 15 14 8 9 15
          9 10 16 10 11 16
          2 3 17 3 18 17
          12 13 19 13 14 20
          13 20 19 14 15 24
          14 24 20 15 9 21
          15 21 24 9 16 21
          18 12 22 12 19 23
          12 23 22 19 20 29
          19 29 23 20 24 29
          21 16 25 16 11 25
          2 17 26 2 26 31
          17 18 27 17 27 26
          18 22 28 18 28 27
          22 23 28 24 21 30
          21 25 30 25 11 43
          27 28 32 28 23 33
          28 33 32 23 29 34
          23 34 33 29 24 35
          29 35 34 24 30 36
          24 36 35 30 25 42
          30 42 36 25 43 42
          31 26 44 26 27 37
          26 37 44 27 32 38
          27 38 37 32 33 39
          32 39 38 33 34 40
          33 40 39 34 35 41
          34 41 40 35 36 49
          35 49 41 36 42 49
          31 44 50 37 38 45
          38 39 46 38 46 45
          39 40 47 39 47 46
          40 41 48 40 48 47
          41 49 48 49 42 56
          42 43 63 42 63 56
          50 44 57 44 37 51
          44 51 57 37 45 52
          37 52 51 45 46 53
          45 53 52 46 47 54
          46 54 53 47 48 55
          47 55 54 48 49 62
          48 62 55 49 56 62
          51 52 58 52 53 59
          52 59 58 53 54 60
          53 60 59 54 55 61
          54 61 60 55 62 61
          50 57 69 57 51 64
          57 64 69 51 58 65
          51 65 64 58 59 66
          58 66 65 59 60 72
          59 72 66 60 61 67
          60 67 72 61 62 73
          61 73 67 62 56 68
          62 68 73 56 63 68
          50 69 74 64 65 70
          65 66 71 65 71 70
          66 72 71 68 63 83
          74 69 75 69 64 76
          69 76 75 64 70 77
          64 77 76 70 71 78
          70 78 77 71 72 79
          71 79 78 72 67 80
          72 80 79 67 73 81
          67 81 80 73 68 82
          73 82 81 68 83 82
        </DataArray>
        <DataArray type="Int32" Name="offsets" format="ascii" RangeMin="3" RangeMax="432">
          3 6 9 12 15 18
          21 24 27 30 33 36
          39 42 45 48 51 54
          57 60 63 66 69 72
          75 78 81 84 87 90
          93 96 99 102 105 108
          111 114 117 120 123 126
          129 132 135 138 141 144
          147 150 153 156 159 162
          165 168 171 174 177 180
          183 186 189 192 195 198
          201 204 207 210 213 216
          219 222 225 228 231 234
          237 240 243 246 249 252
          255 258 261 264 267 270
          273 276 279 282 285 288
          291 294 297 300 303 306
          309 312 315 318 321 324
          327 330 333 336 339 342
          345 348 351 354 357 360
          363 366 369 372 375 378
          381 384 387 390 393 396
          399 402 405 408 411 414
          417 420 423 426 429 432
        </DataArray>
      </Polys>
    </Piece>
  </PolyData>
</VTKFile>
