<?xml version="1.0"?>
<VTKFile type="PolyData" version="0.1" byte_order="LittleEndian" compressor="vtkZLibDataCompressor">
  <PolyData>
    <Piece NumberOfPoints="50" NumberOfVerts="0" NumberOfLines="0" NumberOfStrips="0" NumberOfPolys="115">
      <PointData Normals="Normals">
        <DataArray type="Float32" Name="Normals" NumberOfComponents="3" format="ascii" RangeMin="0.99999997117" RangeMax="1.0000000259">
          0.25881904364 0 0.96592581272 0 0 1
          -0.25129824877 0.061939433217 0.96592581272 -0.19372881949 -0.17162880301 0.96592581272
          0.25881895423 0 -0.96592587233 0 0 -1
          0.22917281091 0.12027917802 -0.96592587233 0.1470259279 0.21300384402 -0.96592587233
          0.5 0 0.86602538824 0.70710676908 0 0.70710676908
          0.7668274045 0.40246209502 0.4999999702 0.96592581272 0 0.25881901383
          1 0 -4.3711388287e-08 0.85528481007 0.44888812304 -0.25881910324
          0.40168243647 0.58193749189 0.70710676908 0.49195849895 0.71272498369 0.4999999702
          0.54870837927 0.79494136572 0.25881901383 0.060268320143 0.49635446072 0.86602538824
          0.10438779742 0.85971111059 0.4999999702 0.11642945558 0.95888316631 0.25881901383
          0.12053664029 0.99270886183 -4.3711388287e-08 0.11642945558 0.95888310671 -0.25881910324
          0.10438778996 0.85971105099 -0.5000000596 -0.17730247974 0.46750813723 0.86602538824
          -0.25074356794 0.66115635633 0.70710676908 -0.30709689856 0.80974781513 0.4999999702
          -0.34252208471 0.90315634012 0.25881901383 -0.35460492969 0.93501621485 -4.3711388287e-08
          -0.34252205491 0.90315628052 -0.25881910324 -0.30709686875 0.80974775553 -0.5000000596
          -0.52927708626 0.46889850497 0.70710676908 -0.64822936058 0.57428103685 0.4999999702
          -0.72300589085 0.64052724838 0.25881901383 -0.74851077795 0.66312259436 -4.3711388287e-08
          -0.72300589085 0.64052724838 -0.25881910324 -0.64822936058 0.57428097725 -0.5000000596
          -0.68655955791 0.16922168434 0.70710676908 -0.84086030722 0.20725338161 0.4999999702
          -0.93785780668 0.23116110265 0.25881901383 -0.9709418416 0.2393155843 -4.3711388287e-08
          -0.93785780668 0.23116110265 -0.25881910324 -0.84086024761 0.20725336671 -0.5000000596
          -0.68655949831 0.16922166944 -0.70710682869 -0.4854709208 -0.11965788156 0.86602538824
          -0.84086024761 -0.20725353062 0.4999999702 -0.93785774708 -0.23116126657 0.25881901383
          -0.970941782 -0.23931576312 -4.3711388287e-08 -0.93785774708 -0.23116126657 -0.25881910324
          -0.68655949831 -0.16922178864 -0.70710682869 -0.3425219059 -0.90315639973 0.25881901383
        </DataArray>
      </PointData>
      <CellData>
      </CellData>
      <Points>
        <DataArray type="Float32" Name="Points" NumberOfComponents="3" format="ascii" RangeMin="3.5399917737" RangeMax="5.9004237891">
          -0.64284801483 2.3454198837 2.5724101067 -1.7527300119 1.7823799849 2.65625
          -2.2450098991 1.6252800226 2.7169699669 -2.6005249023 1.209422946 2.5970599651
          -2.5810849667 2.5670499802 -1.6294649839 -2.9591701031 1.940320015 -1.6475100517
          1.1836999655 4.2384300232 -0.92649400234 -2.2030000687 3.1937799454 -1.6114200354
          0.06639149785 2.747469902 2.2356901169 0.77563101053 3.1495199203 1.8989700079
          1.1917455196 3.4976398945 1.3525739908 1.6078599691 3.845760107 0.80617797375
          1.8033100367 4.0534200668 0.16138599813 1.6873300076 4.1769599915 -0.44358301163
          0.62525302172 3.5494101048 2.1138699055 1.0155514479 3.9968550205 1.543633461
          1.4058500528 4.4443001747 0.97339701653 -0.22349700332 3.5595099926 2.4563200474
          0.62363797426 4.539440155 1.6771999598 0.25307801366 5.0101699829 1.1223100424
          0.45430999994 5.0681800842 0.15353100002 0.78159749508 4.6312251091 -0.70773249865
          0.36657300591 4.3140501976 -0.91872298717 -1.7067199945 2.6636900902 2.728579998
          -1.6419099569 3.5502400398 2.3851699829 -2.3149800301 4.5912299156 1.7543799877
          -2.3173100948 4.9357199669 1.2491899729 -2.3338391781 5.0574116707 0.42667815089
          -2.0906000137 4.7433300018 -0.81343102455 -1.7092200518 4.5520401001 -0.98098599911
          -3.1427299976 2.4801700115 2.4052898884 -3.9715199471 3.3192799091 1.784719944
          -4.030564785 3.7707250118 1.2656849623 -4.3269100189 4.0110602379 -0.065163999796
          -4.285009861 3.7862999439 -0.66743797064 -3.1190500259 3.3184800148 -1.6928499937
          -3.7557199001 0.92432397604 2.4017701149 -4.2475547791 1.4658985138 1.9419749975
          -4.5303602219 1.3724944592 1.4416849613 -4.5303702354 1.4553300142 -0.23655900359
          -4.3333449364 1.8429150581 -0.70720952749 -4.1731901169 1.4570000172 -0.98809802532
          -3.5077600479 2.0361399651 -1.6084699631 -2.9935400486 0.96192598343 2.5719299316
          -4.1704273224 0.53438252211 1.8380475044 -4.5462598801 0.37081500888 1.2218099833
          -4.4043002129 0.21788799763 0.12065300345 -4.1663999557 0.32142400742 -0.38180300593
          -3.5428600311 1.2002199888 -1.2996900082 -4.475279808 0.29435148835 0.67123150826
        </DataArray>
      </Points>
      <Verts>
        <DataArray type="Int32" Name="connectivity" format="ascii" RangeMin="1e+299" RangeMax="-1e+299">
        </DataArray>
        <DataArray type="Int32" Name="offsets" format="ascii" RangeMin="1e+299" RangeMax="-1e+299">
        </DataArray>
      </Verts>
      <Lines>
        <DataArray type="Int32" Name="connectivity" format="ascii" RangeMin="1e+299" RangeMax="-1e+299">
        </DataArray>
        <DataArray type="Int32" Name="offsets" format="ascii" RangeMin="1e+299" RangeMax="-1e+299">
        </DataArray>
      </Lines>
      <Strips>
        <DataArray type="Int32" Name="connectivity" format="ascii" RangeMin="1e+299" RangeMax="-1e+299">
        </DataArray>
        <DataArray type="Int32" Name="offsets" format="ascii" RangeMin="1e+299" RangeMax="-1e+299">
        </DataArray>
      </Strips>
      <Polys>
        <DataArray type="Int32" Name="connectivity" format="ascii" RangeMin="0" RangeMax="49">
          2 3 1 3 2 1
          4 5 6 6 5 7
          7 5 4 9 11 10
          8 9 14 9 10 15
          9 15 14 10 11 16
          10 16 15 11 12 16
          0 8 17 8 14 17
          14 15 18 14 18 17
          15 16 19 15 19 18
          16 12 20 16 20 19
          12 13 21 12 21 20
          13 6 22 13 22 21
          6 7 22 0 17 23
          17 24 23 17 18 25
          17 25 24 18 19 26
          18 26 25 19 20 27
          19 27 26 20 21 28
          20 28 27 21 22 29
          21 29 28 22 7 29
          0 23 2 0 2 1
          23 24 30 23 30 2
          24 25 31 24 31 30
          25 26 32 25 32 31
          26 27 33 26 33 32
          27 28 34 27 34 33
          28 29 35 28 35 34
          29 7 35 7 5 35
          7 4 5 1 2 3
          1 3 2 2 30 36
          2 36 3 30 31 37
          30 37 36 31 32 38
          31 38 37 32 33 39
          32 39 38 33 34 40
          33 40 39 34 35 41
          34 41 40 35 42 41
          35 5 42 2 3 43
          2 43 3 36 37 44
          37 38 45 37 45 44
          38 39 46 38 46 45
          39 40 47 39 47 46
          40 41 47 41 42 48
          41 48 47 42 5 48
          3 43 2 44 45 49
          44 49 36 45 46 49
          2 43 3 2 3 1
          36 49 43 49 46 47
          49 47 43 1 3 0
          3 43 0 43 47 8
          43 8 0 47 9 8
          47 48 9 47 48 5
          47 5 48 0 9 8
          0 8 11 0 11 9
          8 9 12 8 12 11
          9 48 13 9 13 12
          48 5 6 48 6 13
          0 8 9 0 9 8
          9 11 12 9 12 11
          6 5 4
        </DataArray>
        <DataArray type="Int32" Name="offsets" format="ascii" RangeMin="3" RangeMax="345">
          3 6 9 12 15 18
          21 24 27 30 33 36
          39 42 45 48 51 54
          57 60 63 66 69 72
          75 78 81 84 87 90
          93 96 99 102 105 108
          111 114 117 120 123 126
          129 132 135 138 141 144
          147 150 153 156 159 162
          165 168 171 174 177 180
          183 186 189 192 195 198
          201 204 207 210 213 216
          219 222 225 228 231 234
          237 240 243 246 249 252
          255 258 261 264 267 270
          273 276 279 282 285 288
          291 294 297 300 303 306
          309 312 315 318 321 324
          327 330 333 336 339 342
          345
        </DataArray>
      </Polys>
    </Piece>
  </PolyData>
</VTKFile>
