<VTKFile type="PolyData" version="0.1" byte_order="LittleEndian">
  <PolyData>
    <Piece NumberOfPoints="104" NumberOfVerts="0" NumberOfLines="0" NumberOfStrips="0" NumberOfPolys="179">
      <PointData Normals="Normals">
        <DataArray type="Float32" Name="Normals" NumberOfComponents="3" format="ascii" RangeMin="0.99999996236" RangeMax="1.0000000389">
          1 2.2204460493e-16 4.9303806576e-32 -1 -2.2204460493e-16 -4.9303806576e-32
          0.95274585485 -0.29915362597 -0.052748858929 0.83159852028 -0.54693984985 -0.096440248191
          0.67609339952 -0.72562199831 -0.12794673443 0.51466554403 -0.84436535835 -0.14888440073
          0.35921058059 -0.91907829046 -0.16205829382 0.21170336008 -0.96248608828 -0.16971226037
          -0.069898143411 -0.98239904642 -0.17322346568 -0.21170338988 -0.96248608828 -0.16971226037
          -0.35921064019 -0.91907823086 -0.16205829382 -0.51466560364 -0.84436529875 -0.14888438582
          -0.67609345913 -0.72562193871 -0.12794673443 -0.83159857988 -0.54693979025 -0.096440240741
          -0.95274591446 -0.29915353656 -0.052748840302 0.51466554403 -0.80568403006 -0.29324501753
          0.069898083806 -0.93739426136 -0.34118363261 -0.67609345913 -0.69238042831 -0.25200584531
          0.67609339952 -0.63810127974 -0.36840799451 0.21170336008 -0.846396029 -0.48866701126
          -0.069898143411 -0.86390721798 -0.4987770915 -0.35921066999 -0.80822384357 -0.46662828326
          -0.95274591446 -0.26307117939 -0.15188422799 0.51466554403 -0.65679961443 -0.55112040043
          0.35921058059 -0.71491599083 -0.59988576174 0.069898076355 -0.76417076588 -0.64121544361
          -0.51466560364 -0.65679961443 -0.55112028122 0.83159852028 -0.35698965192 -0.4254437089
          0.67609339952 -0.473616153 -0.56443375349 0.21170336008 -0.62821817398 -0.74868124723
          -0.069898143411 -0.64121538401 -0.76417082548 -0.35921066999 -0.59988570213 -0.71491593122
          -0.67609345913 -0.4736160934 -0.56443369389 0.95274585485 -0.15188427269 -0.2630712986
          0.51466554403 -0.4286954999 -0.7425224185 0.35921058059 -0.46662822366 -0.80822390318
          0.069898083806 -0.4987770617 -0.86390721798 -0.51466566324 -0.4286954999 -0.74252235889
          -0.83159857988 -0.27768859267 -0.48097077012 0.83159846067 -0.18995021284 -0.52188396454
          0.21170334518 -0.33426785469 -0.9183935523 -0.21170340478 -0.33426788449 -0.9183934927
          -0.35921066999 -0.31919249892 -0.87697428465 -0.95274591446 -0.10389491916 -0.28544896841
          0.51466554403 -0.14888437092 -0.84436535835 0.35921058059 -0.16205824912 -0.91907829046
          0.069898076355 -0.17322340608 -0.98239904642 -0.069898143411 -0.17322340608 -0.98239904642
          -0.67609351873 -0.12794670463 -0.72562193871 0.67609339952 3.0140430596e-08 -0.73681592941
          0.21170334518 3.5565424383e-08 -0.97733396292 -0.06989813596 3.7356496563e-08 -0.9975541234
          -0.35921064019 3.3029461832e-08 -0.93325650692 -0.51466566324 2.9644054322e-08 -0.85739099979
          0.95274585485 0.052748870105 -0.29915362597 0.35921058059 0.16205833852 -0.91907829046
          0.069898083806 0.17322351038 -0.98239904642 -0.21170338988 0.16971230507 -0.96248602867
          -0.67609345913 0.12794676423 -0.72562193871 -0.95274591446 0.052748851478 -0.29915353656
          0.67609339952 0.25200593472 -0.69238048792 0.51466554403 0.29324504733 -0.80568403006
          0.21170336008 0.3342679441 -0.9183934927 -0.069898143411 0.34118366241 -0.93739426136
          -0.35921064019 0.31919255853 -0.87697422504 -0.83159857988 0.18995019794 -0.52188384533
          0.83159852028 0.27768868208 -0.48097082973 0.069898076355 0.4987770915 -0.86390721798
          -0.21170338988 0.48866698146 -0.846396029 -0.51466560364 0.4286955297 -0.74252235889
          -0.67609345913 0.36840796471 -0.63810122013 0.51466554403 0.55112040043 -0.65679961443
          0.35921058059 0.59988576174 -0.71491599083 0.21170334518 0.62821817398 -0.74868124723
          -0.35921064019 0.59988576174 -0.71491593122 -0.51466566324 0.55112034082 -0.65679955482
          -0.95274591446 0.1952586174 -0.23270012438 0.83159852028 0.4254437387 -0.35698959231
          0.51466554403 0.65679967403 -0.55112028122 0.069898083806 0.76417088509 -0.6412153244
          -0.069898143411 0.76417082548 -0.64121538401 -0.21170338988 0.74868130684 -0.62821811438
          -0.35921066999 0.71491599083 -0.59988564253 -0.67609351873 0.56443369389 -0.47361606359
          0.95274585485 0.2630713284 -0.15188425779 0.35921058059 0.80822390318 -0.46662822366
          0.069898076355 0.86390727758 -0.4987770021 -0.21170340478 0.846396029 -0.48866695166
          -0.51466566324 0.74252235889 -0.42869547009 0.67609339952 0.69238054752 -0.25200581551
          0.21170334518 0.9183935523 -0.33426782489 -0.069898143411 0.93739432096 -0.3411835134
          0.95274585485 0.29915362597 -0.052748836577 0.83159852028 0.54693990946 -0.096440210938
          0.67609339952 0.72562199831 -0.12794668972 0.51466554403 0.84436535835 -0.14888432622
          0.35921058059 0.91907829046 -0.16205821931 0.21170336008 0.96248608828 -0.16971220076
          -0.069898143411 0.98239904642 -0.17322339118 -0.35921066999 0.91907823086 -0.16205824912
          -0.51466566324 0.84436529875 -0.14888431132 -0.67609351873 0.72562193871 -0.12794668972
          -0.83159857988 0.54693979025 -0.096440188587 -0.95274591446 0.29915353656 -0.0527488105
        </DataArray>
      </PointData>
      <CellData>
      </CellData>
      <Points>
        <DataArray type="Float32" Name="Points" NumberOfComponents="3" format="ascii" RangeMin="5.0340283602" RangeMax="7.5">
          7.5 1.6653345369e-15 3.6977854932e-31 -7.5 -1.6653345369e-15 -3.6977854932e-31
          7.336107254 -1.0237653255 -0.18051744998 6.8515906334 -2.0027871132 -0.35314539075
          6.06762743 -2.8942773342 -0.5103392005 5.0184798241 -3.6592741013 -0.64522874355
          3.7499997616 -4.2643427849 -0.75191873312 2.3176271915 -4.6830391884 -0.82574611902
          -0.78396379948 -4.897064209 -0.86348456144 -2.3176276684 -4.6830391884 -0.82574611902
          -3.7500002384 -4.264342308 -0.75191861391 -5.0184798241 -3.6592738628 -0.64522868395
          -6.06762743 -2.8942770958 -0.51033914089 -6.8515911102 -2.0027866364 -0.35314530134
          -7.336107254 -1.0237648487 -0.18051736057 5.0184798241 -3.4916386604 -1.2708525658
          0.78396320343 -4.672724247 -1.7007325888 -6.06762743 -2.7616870403 -1.005171895
          6.06762743 -2.5451848507 -1.46946311 2.3176271915 -4.1181955338 -2.3776414394
          -0.78396379948 -4.3064060211 -2.48630476 -3.7500002384 -3.75 -2.1650633812
          -7.336107254 -0.90028369427 -0.51977902651 5.0184798241 -2.8464097977 -2.3884215355
          3.7499997616 -3.3170697689 -2.7833521366 0.78396320343 -3.8092398643 -3.1963317394
          -5.0184798241 -2.8464095592 -2.3884212971 6.8515906334 -1.3072264194 -1.5578917265
          6.06762743 -1.8891055584 -2.2513482571 2.3176271915 -3.0566368103 -3.6427578926
          -0.78396379948 -3.1963317394 -3.8092398643 -3.7500002384 -2.7833518982 -3.3170695305
          -6.06762743 -1.8891050816 -2.2513477802 7.336107254 -0.51977920532 -0.9002841115
          5.0184793472 -1.8578618765 -3.2179117203 3.7499997616 -2.1650633812 -3.75
          0.78396320343 -2.48630476 -4.3064060211 -5.0184798241 -1.8578619957 -3.2179114819
          -6.8515911102 -1.0168412924 -1.7612210512 6.8515906334 -0.69556051493 -1.9110372066
          2.3176271915 -1.6264023781 -4.468503952 -2.3176276684 -1.6264023781 -4.468503952
          -3.7500002384 -1.4809905291 -4.0689883232 -7.336107254 -0.35554978251 -0.97686505318
          5.0184793472 -0.64522862434 -3.6592741013 3.7499995232 -0.75191855431 -4.2643427849
          0.78396320343 -0.86348438263 -4.8970646858 -0.78396379948 -0.86348444223 -4.897064209
          -6.06762743 -0.51033902168 -2.8942770958 6.06762743 1.4223283529e-07 -2.9389264584
          2.3176271915 1.5837113665e-07 -4.755282402 -0.78396379948 1.6118970336e-07 -4.97260952
          -3.7500004768 1.0752471269e-07 -4.3301267624 -5.0184798241 1.0344509604e-07 -3.715723753
          7.336107254 0.18051749468 -1.0237653255 3.7499995232 0.75191891193 -4.2643427849
          0.78396320343 0.86348479986 -4.897064209 -2.3176279068 0.82574635744 -4.6830387115
          -6.06762743 0.5103392601 -2.8942770958 -7.336107254 0.18051740527 -1.0237648487
          6.06762743 1.0051721334 -2.7616872787 5.0184793472 1.270852685 -3.491638422
          2.3176271915 1.6264027357 -4.468503952 -0.78396385908 1.7007328272 -4.672724247
          -3.7500004768 1.4809907675 -4.0689878464 -6.8515911102 0.69556057453 -1.9110367298
          6.8515906334 1.0168417692 -1.7612212896 0.78396320343 2.4863049984 -4.3064060211
          -2.3176279068 2.3776414394 -4.1181955338 -5.0184798241 1.8578621149 -3.217911005
          -6.06762743 1.46946311 -2.5451846123 5.0184793472 2.3884215355 -2.8464097977
          3.7499995232 2.783352375 -3.3170697689 2.3176271915 3.0566368103 -3.6427578926
          -3.7500004768 2.7833521366 -3.3170695305 -5.0184798241 2.3884215355 -2.8464095592
          -7.336107254 0.668215096 -0.7963476181 6.8515906334 1.5578918457 -1.3072263002
          5.0184793472 2.8464100361 -2.3884212971 0.78396320343 3.8092401028 -3.196331501
          -0.78396385908 3.8092401028 -3.196331501 -2.3176279068 3.6427578926 -3.0566365719
          -3.7500004768 3.3170697689 -2.7833516598 -6.06762743 2.2513480186 -1.8891050816
          7.336107254 0.9002841115 -0.51977920532 3.7499995232 3.7500002384 -2.1650633812
          0.78396320343 4.306406498 -2.4863045216 -2.3176279068 4.1181955338 -2.3776409626
          -5.0184798241 3.2179114819 -1.8578617573 6.06762743 2.7616875172 -1.0051717758
          2.3176271915 4.468503952 -1.6264021397 -0.78396385908 4.6727247238 -1.7007323503
          7.336107254 1.0237653255 -0.18051736057 6.8515906334 2.0027871132 -0.35314527154
          6.06762743 2.8942775726 -0.51033896208 5.0184793472 3.6592741013 -0.64522844553
          3.7499995232 4.2643427849 -0.75191837549 2.3176271915 4.6830391884 -0.8257458806
          -0.78396385908 4.8970646858 -0.86348414421 -3.7500004768 4.264342308 -0.75191831589
          -5.0184798241 3.6592738628 -0.64522844553 -6.06762743 2.8942770958 -0.51033890247
          -6.8515915871 2.0027866364 -0.35314515233 -7.336107254 1.0237648487 -0.18051728606
        </DataArray>
      </Points>
      <Verts>
        <DataArray type="Int32" Name="connectivity" format="ascii" RangeMin="1e+299" RangeMax="-1e+299">
        </DataArray>
        <DataArray type="Int32" Name="offsets" format="ascii" RangeMin="1e+299" RangeMax="-1e+299">
        </DataArray>
      </Verts>
      <Lines>
        <DataArray type="Int32" Name="connectivity" format="ascii" RangeMin="1e+299" RangeMax="-1e+299">
        </DataArray>
        <DataArray type="Int32" Name="offsets" format="ascii" RangeMin="1e+299" RangeMax="-1e+299">
        </DataArray>
      </Lines>
      <Strips>
        <DataArray type="Int32" Name="connectivity" format="ascii" RangeMin="1e+299" RangeMax="-1e+299">
        </DataArray>
        <DataArray type="Int32" Name="offsets" format="ascii" RangeMin="1e+299" RangeMax="-1e+299">
        </DataArray>
      </Strips>
      <Polys>
        <DataArray type="Int32" Name="connectivity" format="ascii" RangeMin="0" RangeMax="103">
          2 33 0 33 54 0
          54 84 0 84 92 0
          14 1 22 22 1 43
          43 1 59 59 1 76
          76 1 103 3 4 18
          4 5 15 4 15 18
          5 6 15 6 7 19
          7 16 19 7 8 16
          8 9 21 9 10 21
          10 11 21 11 12 17
          12 13 17 2 3 27
          3 18 27 15 6 24
          6 19 24 19 16 25
          16 8 20 16 20 25
          8 21 20 17 13 38
          13 14 22 13 22 38
          18 15 23 15 24 23
          21 11 26 21 26 31
          11 17 26 2 27 33
          27 18 28 18 23 34
          18 34 28 23 24 35
          23 35 34 24 19 29
          24 29 35 19 25 36
          19 36 29 25 20 30
          25 30 36 20 21 31
          20 31 30 26 17 32
          17 38 32 27 28 49
          28 34 49 35 29 40
          29 36 40 31 26 37
          31 37 42 26 32 37
          33 27 39 27 49 39
          34 35 45 35 40 45
          36 30 47 30 31 41
          30 41 47 31 42 41
          37 32 48 32 38 48
          38 22 43 33 39 54
          49 34 44 34 45 44
          45 40 50 40 36 46
          40 46 50 36 47 46
          41 42 52 42 37 53
          42 53 52 37 48 53
          44 45 55 45 50 55
          46 47 51 47 41 57
          47 57 51 41 52 57
          38 43 59 49 44 61
          44 55 61 55 50 62
          50 46 56 50 56 62
          46 51 63 46 63 56
          51 57 63 53 48 58
          48 38 58 54 39 66
          39 49 60 39 60 66
          49 61 60 57 52 64
          52 53 64 53 58 70
          58 38 65 58 65 70
          38 59 65 55 62 73
          62 56 67 62 67 73
          56 63 67 63 57 68
          57 64 68 64 53 69
          53 70 69 65 59 76
          54 66 77 66 60 77
          60 61 71 61 55 72
          61 72 71 55 73 72
          67 63 80 63 68 80
          68 64 74 64 69 75
          64 75 74 69 70 83
          69 83 75 70 65 83
          54 77 84 77 60 89
          60 71 78 60 78 89
          71 72 85 71 85 78
          72 73 85 73 67 79
          67 80 79 80 68 81
          68 74 82 68 82 81
          74 75 88 74 88 82
          75 83 88 65 76 103
          89 78 95 78 85 95
          85 73 90 73 79 86
          73 86 90 79 80 91
          79 91 86 80 81 87
          80 87 91 81 82 99
          81 99 87 82 88 99
          83 65 102 65 103 102
          84 77 93 77 89 93
          88 83 101 83 102 101
          84 93 92 93 89 94
          89 95 94 95 85 96
          85 90 97 85 97 96
          90 86 97 86 91 98
          86 98 97 91 87 99
          91 99 98 99 88 100
          88 101 100
        </DataArray>
        <DataArray type="Int32" Name="offsets" format="ascii" RangeMin="3" RangeMax="537">
          3 6 9 12 15 18
          21 24 27 30 33 36
          39 42 45 48 51 54
          57 60 63 66 69 72
          75 78 81 84 87 90
          93 96 99 102 105 108
          111 114 117 120 123 126
          129 132 135 138 141 144
          147 150 153 156 159 162
          165 168 171 174 177 180
          183 186 189 192 195 198
          201 204 207 210 213 216
          219 222 225 228 231 234
          237 240 243 246 249 252
          255 258 261 264 267 270
          273 276 279 282 285 288
          291 294 297 300 303 306
          309 312 315 318 321 324
          327 330 333 336 339 342
          345 348 351 354 357 360
          363 366 369 372 375 378
          381 384 387 390 393 396
          399 402 405 408 411 414
          417 420 423 426 429 432
          435 438 441 444 447 450
          453 456 459 462 465 468
          471 474 477 480 483 486
          489 492 495 498 501 504
          507 510 513 516 519 522
          525 528 531 534 537
        </DataArray>
      </Polys>
    </Piece>
  </PolyData>
</VTKFile>
