<VTKFile type="PolyData" version="0.1" byte_order="LittleEndian">
  <PolyData>
    <Piece NumberOfPoints="130" NumberOfVerts="0" NumberOfLines="0" NumberOfStrips="12" NumberOfPolys="0">
      <PointData Normals="TubeNormals" TCoords="Texture Coordinates">
        <DataArray type="Float32" Name="TubeNormals" NumberOfComponents="3" format="ascii" RangeMin="0.99999997761" RangeMax="1.0000000236">
          1 0 1.5701957963e-16 0.80901700258 0.58778524399 1.270315031e-16
          0.30901697278 0.95105654001 4.8521713283e-17 -0.30901703238 0.95105648041 -4.8521726518e-17
          -0.80901706219 0.58778518438 -1.2703151633e-16 -1 -8.7422776573e-08 -1.5701957963e-16
          -0.80901694298 -0.5877853632 -1.270315031e-16 -0.30901688337 -0.95105654001 -4.8521700048e-17
          0.30901712179 -0.95105648041 4.8521739753e-17 0.80901706219 -0.58778512478 1.2703151633e-16
          1 0 1.5701957963e-16 0.80901700258 0.58778524399 1.270315031e-16
          0.30901697278 0.95105654001 4.8521713283e-17 -0.30901703238 0.95105648041 -4.8521726518e-17
          -0.80901706219 0.58778518438 -1.2703151633e-16 -1 -8.7422776573e-08 -1.5701957963e-16
          -0.80901694298 -0.5877853632 -1.270315031e-16 -0.30901688337 -0.95105654001 -4.8521700048e-17
          0.30901712179 -0.95105648041 4.8521739753e-17 0.80901706219 -0.58778512478 1.2703151633e-16
          1 0 1.5701957963e-16 0.80901700258 0.58778524399 1.270315031e-16
          0.30901697278 0.95105654001 4.8521713283e-17 -0.30901703238 0.95105648041 -4.8521726518e-17
          -0.80901706219 0.58778518438 -1.2703151633e-16 -1 -8.7422776573e-08 -1.5701957963e-16
          -0.80901694298 -0.5877853632 -1.270315031e-16 -0.30901688337 -0.95105654001 -4.8521700048e-17
          0.30901712179 -0.95105648041 4.8521739753e-17 0.80901706219 -0.58778512478 1.2703151633e-16
          1 0 1.5701957963e-16 0.80901700258 0.58778524399 1.270315031e-16
          0.30901697278 0.95105654001 4.8521713283e-17 -0.30901703238 0.95105648041 -4.8521726518e-17
          -0.80901706219 0.58778518438 -1.2703151633e-16 -1 -8.7422776573e-08 -1.5701957963e-16
          -0.80901694298 -0.5877853632 -1.270315031e-16 -0.30901688337 -0.95105654001 -4.8521700048e-17
          0.30901712179 -0.95105648041 4.8521739753e-17 0.80901706219 -0.58778512478 1.2703151633e-16
          1 0 1.5701957963e-16 0.80901700258 0.58778524399 1.270315031e-16
          0.30901697278 0.95105654001 4.8521713283e-17 -0.30901703238 0.95105648041 -4.8521726518e-17
          -0.80901706219 0.58778518438 -1.2703151633e-16 -1 -8.7422776573e-08 -1.5701957963e-16
          -0.80901694298 -0.5877853632 -1.270315031e-16 -0.30901688337 -0.95105654001 -4.8521700048e-17
          0.30901712179 -0.95105648041 4.8521739753e-17 0.80901706219 -0.58778512478 1.2703151633e-16
          1 0 1.5701957963e-16 0.80901700258 0.58778524399 1.270315031e-16
          0.30901697278 0.95105654001 4.8521713283e-17 -0.30901703238 0.95105648041 -4.8521726518e-17
          -0.80901706219 0.58778518438 -1.2703151633e-16 -1 -8.7422776573e-08 -1.5701957963e-16
          -0.80901694298 -0.5877853632 -1.270315031e-16 -0.30901688337 -0.95105654001 -4.8521700048e-17
          0.30901712179 -0.95105648041 4.8521739753e-17 0.80901706219 -0.58778512478 1.2703151633e-16
          1 0 1.5701957963e-16 0.80901700258 0.58778524399 1.270315031e-16
          0.30901697278 0.95105654001 4.8521713283e-17 -0.30901703238 0.95105648041 -4.8521726518e-17
          -0.80901706219 0.58778518438 -1.2703151633e-16 -1 -8.7422776573e-08 -1.5701957963e-16
          -0.80901694298 -0.5877853632 -1.270315031e-16 -0.30901688337 -0.95105654001 -4.8521700048e-17
          0.30901712179 -0.95105648041 4.8521739753e-17 0.80901706219 -0.58778512478 1.2703151633e-16
          1 0 1.5701957963e-16 0.80901700258 0.58778524399 1.270315031e-16
          0.30901697278 0.95105654001 4.8521713283e-17 -0.30901703238 0.95105648041 -4.8521726518e-17
          -0.80901706219 0.58778518438 -1.2703151633e-16 -1 -8.7422776573e-08 -1.5701957963e-16
          -0.80901694298 -0.5877853632 -1.270315031e-16 -0.30901688337 -0.95105654001 -4.8521700048e-17
          0.30901712179 -0.95105648041 4.8521739753e-17 0.80901706219 -0.58778512478 1.2703151633e-16
          1 0 1.5701957963e-16 0.80901700258 0.58778524399 1.270315031e-16
          0.30901697278 0.95105654001 4.8521713283e-17 -0.30901703238 0.95105648041 -4.8521726518e-17
          -0.80901706219 0.58778518438 -1.2703151633e-16 -1 -8.7422776573e-08 -1.5701957963e-16
          -0.80901694298 -0.5877853632 -1.270315031e-16 -0.30901688337 -0.95105654001 -4.8521700048e-17
          0.30901712179 -0.95105648041 4.8521739753e-17 0.80901706219 -0.58778512478 1.2703151633e-16
          1 0 1.5701957963e-16 0.80901700258 0.58778524399 1.270315031e-16
          0.30901697278 0.95105654001 4.8521713283e-17 -0.30901703238 0.95105648041 -4.8521726518e-17
          -0.80901706219 0.58778518438 -1.2703151633e-16 -1 -8.7422776573e-08 -1.5701957963e-16
          -0.80901694298 -0.5877853632 -1.270315031e-16 -0.30901688337 -0.95105654001 -4.8521700048e-17
          0.30901712179 -0.95105648041 4.8521739753e-17 0.80901706219 -0.58778512478 1.2703151633e-16
          1 0 1.5701957963e-16 0.80901700258 0.58778524399 1.270315031e-16
          0.30901697278 0.95105654001 4.8521713283e-17 -0.30901703238 0.95105648041 -4.8521726518e-17
          -0.80901706219 0.58778518438 -1.2703151633e-16 -1 -8.7422776573e-08 -1.5701957963e-16
          -0.80901694298 -0.5877853632 -1.270315031e-16 -0.30901688337 -0.95105654001 -4.8521700048e-17
          0.30901712179 -0.95105648041 4.8521739753e-17 0.80901706219 -0.58778512478 1.2703151633e-16
          -1.5701957963e-16 0 1 -1.5701957963e-16 0 1
          -1.5701957963e-16 0 1 -1.5701957963e-16 0 1
          -1.5701957963e-16 0 1 -1.5701957963e-16 0 1
          -1.5701957963e-16 0 1 -1.5701957963e-16 0 1
          -1.5701957963e-16 0 1 -1.5701957963e-16 0 1
          1.5701957963e-16 0 -1 1.5701957963e-16 0 -1
          1.5701957963e-16 0 -1 1.5701957963e-16 0 -1
          1.5701957963e-16 0 -1 1.5701957963e-16 0 -1
          1.5701957963e-16 0 -1 1.5701957963e-16 0 -1
          1.5701957963e-16 0 -1 1.5701957963e-16 0 -1
        </DataArray>
        <DataArray type="Float32" Name="Texture Coordinates" NumberOfComponents="2" format="ascii" RangeMin="0" RangeMax="1">
          0 0 0 0 0 0
          0 0 0 0 0 0
          0 0 0 0 0 0
          0 0 0.10000000149 0 0.10000000149 0
          0.10000000149 0 0.10000000149 0 0.10000000149 0
          0.10000000149 0 0.10000000149 0 0.10000000149 0
          0.10000000149 0 0.10000000149 0 0.20000000298 0
          0.20000000298 0 0.20000000298 0 0.20000000298 0
          0.20000000298 0 0.20000000298 0 0.20000000298 0
          0.20000000298 0 0.20000000298 0 0.20000000298 0
          0.30000001192 0 0.30000001192 0 0.30000001192 0
          0.30000001192 0 0.30000001192 0 0.30000001192 0
          0.30000001192 0 0.30000001192 0 0.30000001192 0
          0.30000001192 0 0.40000000596 0 0.40000000596 0
          0.40000000596 0 0.40000000596 0 0.40000000596 0
          0.40000000596 0 0.40000000596 0 0.40000000596 0
          0.40000000596 0 0.40000000596 0 0.5 0
          0.5 0 0.5 0 0.5 0
          0.5 0 0.5 0 0.5 0
          0.5 0 0.5 0 0.5 0
          0.60000002384 0 0.60000002384 0 0.60000002384 0
          0.60000002384 0 0.60000002384 0 0.60000002384 0
          0.60000002384 0 0.60000002384 0 0.60000002384 0
          0.60000002384 0 0.69999998808 0 0.69999998808 0
          0.69999998808 0 0.69999998808 0 0.69999998808 0
          0.69999998808 0 0.69999998808 0 0.69999998808 0
          0.69999998808 0 0.69999998808 0 0.80000001192 0
          0.80000001192 0 0.80000001192 0 0.80000001192 0
          0.80000001192 0 0.80000001192 0 0.80000001192 0
          0.80000001192 0 0.80000001192 0 0.80000001192 0
          0.89999997616 0 0.89999997616 0 0.89999997616 0
          0.89999997616 0 0.89999997616 0 0.89999997616 0
          0.89999997616 0 0.89999997616 0 0.89999997616 0
          0.89999997616 0 1 0 1 0
          1 0 1 0 1 0
          1 0 1 0 1 0
          1 0 1 0 0 0
          0 0 0 0 0 0
          0 0 0 0 0 0
          0 0 0 0 0 0
          1 0 1 0 1 0
          1 0 1 0 1 0
          1 0 1 0 1 0
          1 0
        </DataArray>
      </PointData>
      <CellData>
      </CellData>
      <Points>
        <DataArray type="Float32" Name="Points" NumberOfComponents="3" format="ascii" RangeMin="0.049999998996" RangeMax="2.50049995">
          0.050000000745 0 2.5 0.040450848639 0.029389264062 2.5
          0.015450848266 0.047552827746 2.5 -0.015450851992 0.04755282402 2.5
          -0.040450852364 0.029389260337 2.5 -0.050000000745 -4.3711390063e-09 2.5
          -0.040450844914 -0.029389267787 2.5 -0.01545084361 -0.047552827746 2.5
          0.015450856648 -0.04755282402 2.5 0.04045085609 -0.029389256611 2.5
          0.050000000745 0 2 0.040450848639 0.029389264062 2
          0.015450848266 0.047552827746 2 -0.015450851992 0.04755282402 2
          -0.040450852364 0.029389260337 2 -0.050000000745 -4.3711390063e-09 2
          -0.040450844914 -0.029389267787 2 -0.01545084361 -0.047552827746 2
          0.015450856648 -0.04755282402 2 0.04045085609 -0.029389256611 2
          0.050000000745 0 1.5 0.040450848639 0.029389264062 1.5
          0.015450848266 0.047552827746 1.5 -0.015450851992 0.04755282402 1.5
          -0.040450852364 0.029389260337 1.5 -0.050000000745 -4.3711390063e-09 1.5
          -0.040450844914 -0.029389267787 1.5 -0.01545084361 -0.047552827746 1.5
          0.015450856648 -0.04755282402 1.5 0.04045085609 -0.029389256611 1.5
          0.050000000745 0 1 0.040450848639 0.029389264062 1
          0.015450848266 0.047552827746 1 -0.015450851992 0.04755282402 1
          -0.040450852364 0.029389260337 1 -0.050000000745 -4.3711390063e-09 1
          -0.040450844914 -0.029389267787 1 -0.01545084361 -0.047552827746 1
          0.015450856648 -0.04755282402 1 0.04045085609 -0.029389256611 1
          0.050000000745 0 0.5 0.040450848639 0.029389264062 0.5
          0.015450848266 0.047552827746 0.5 -0.015450851992 0.04755282402 0.5
          -0.040450852364 0.029389260337 0.5 -0.050000000745 -4.3711390063e-09 0.5
          -0.040450844914 -0.029389267787 0.5 -0.01545084361 -0.047552827746 0.5
          0.015450856648 -0.04755282402 0.5 0.04045085609 -0.029389256611 0.5
          0.050000000745 0 7.8509788161e-18 0.040450848639 0.029389264062 6.3515754031e-18
          0.015450848266 0.047552827746 2.4260857882e-18 -0.015450851992 0.04755282402 -2.4260862018e-18
          -0.040450852364 0.029389260337 -6.3515758167e-18 -0.050000000745 -4.3711390063e-09 -7.8509788161e-18
          -0.040450844914 -0.029389267787 -6.3515745759e-18 -0.01545084361 -0.047552827746 -2.4260849611e-18
          0.015450856648 -0.04755282402 2.426087029e-18 0.04045085609 -0.029389256611 6.3515762303e-18
          0.050000000745 0 -0.5 0.040450848639 0.029389264062 -0.5
          0.015450848266 0.047552827746 -0.5 -0.015450851992 0.04755282402 -0.5
          -0.040450852364 0.029389260337 -0.5 -0.050000000745 -4.3711390063e-09 -0.5
          -0.040450844914 -0.029389267787 -0.5 -0.01545084361 -0.047552827746 -0.5
          0.015450856648 -0.04755282402 -0.5 0.04045085609 -0.029389256611 -0.5
          0.050000000745 0 -1 0.040450848639 0.029389264062 -1
          0.015450848266 0.047552827746 -1 -0.015450851992 0.04755282402 -1
          -0.040450852364 0.029389260337 -1 -0.050000000745 -4.3711390063e-09 -1
          -0.040450844914 -0.029389267787 -1 -0.01545084361 -0.047552827746 -1
          0.015450856648 -0.04755282402 -1 0.04045085609 -0.029389256611 -1
          0.050000000745 0 -1.5 0.040450848639 0.029389264062 -1.5
          0.015450848266 0.047552827746 -1.5 -0.015450851992 0.04755282402 -1.5
          -0.040450852364 0.029389260337 -1.5 -0.050000000745 -4.3711390063e-09 -1.5
          -0.040450844914 -0.029389267787 -1.5 -0.01545084361 -0.047552827746 -1.5
          0.015450856648 -0.04755282402 -1.5 0.04045085609 -0.029389256611 -1.5
          0.050000000745 0 -2 0.040450848639 0.029389264062 -2
          0.015450848266 0.047552827746 -2 -0.015450851992 0.04755282402 -2
          -0.040450852364 0.029389260337 -2 -0.050000000745 -4.3711390063e-09 -2
          -0.040450844914 -0.029389267787 -2 -0.01545084361 -0.047552827746 -2
          0.015450856648 -0.04755282402 -2 0.04045085609 -0.029389256611 -2
          0.050000000745 0 -2.5 0.040450848639 0.029389264062 -2.5
          0.015450848266 0.047552827746 -2.5 -0.015450851992 0.04755282402 -2.5
          -0.040450852364 0.029389260337 -2.5 -0.050000000745 -4.3711390063e-09 -2.5
          -0.040450844914 -0.029389267787 -2.5 -0.01545084361 -0.047552827746 -2.5
          0.015450856648 -0.04755282402 -2.5 0.04045085609 -0.029389256611 -2.5
          0.050000000745 0 2.5 0.040450848639 0.029389264062 2.5
          0.015450848266 0.047552827746 2.5 -0.015450851992 0.04755282402 2.5
          -0.040450852364 0.029389260337 2.5 -0.050000000745 -4.3711390063e-09 2.5
          -0.040450844914 -0.029389267787 2.5 -0.01545084361 -0.047552827746 2.5
          0.015450856648 -0.04755282402 2.5 0.04045085609 -0.029389256611 2.5
          0.050000000745 0 -2.5 0.040450848639 0.029389264062 -2.5
          0.015450848266 0.047552827746 -2.5 -0.015450851992 0.04755282402 -2.5
          -0.040450852364 0.029389260337 -2.5 -0.050000000745 -4.3711390063e-09 -2.5
          -0.040450844914 -0.029389267787 -2.5 -0.01545084361 -0.047552827746 -2.5
          0.015450856648 -0.04755282402 -2.5 0.04045085609 -0.029389256611 -2.5
        </DataArray>
      </Points>
      <Verts>
        <DataArray type="Int32" Name="connectivity" format="ascii" RangeMin="1e+299" RangeMax="-1e+299">
        </DataArray>
        <DataArray type="Int32" Name="offsets" format="ascii" RangeMin="1e+299" RangeMax="-1e+299">
        </DataArray>
      </Verts>
      <Lines>
        <DataArray type="Int32" Name="connectivity" format="ascii" RangeMin="1e+299" RangeMax="-1e+299">
        </DataArray>
        <DataArray type="Int32" Name="offsets" format="ascii" RangeMin="1e+299" RangeMax="-1e+299">
        </DataArray>
      </Lines>
      <Strips>
        <DataArray type="Int32" Name="connectivity" format="ascii" RangeMin="0" RangeMax="129">
          1 0 11 10 21 20
          31 30 41 40 51 50
          61 60 71 70 81 80
          91 90 101 100 2 1
          12 11 22 21 32 31
          42 41 52 51 62 61
          72 71 82 81 92 91
          102 101 3 2 13 12
          23 22 33 32 43 42
          53 52 63 62 73 72
          83 82 93 92 103 102
          4 3 14 13 24 23
          34 33 44 43 54 53
          64 63 74 73 84 83
          94 93 104 103 5 4
          15 14 25 24 35 34
          45 44 55 54 65 64
          75 74 85 84 95 94
          105 104 6 5 16 15
          26 25 36 35 46 45
          56 55 66 65 76 75
          86 85 96 95 106 105
          7 6 17 16 27 26
          37 36 47 46 57 56
          67 66 77 76 87 86
          97 96 107 106 8 7
          18 17 28 27 38 37
          48 47 58 57 68 67
          78 77 88 87 98 97
          108 107 9 8 19 18
          29 28 39 38 49 48
          59 58 69 68 79 78
          89 88 99 98 109 108
          0 9 10 19 20 29
          30 39 40 49 50 59
          60 69 70 79 80 89
          90 99 100 109 110 111
          119 112 118 113 117 114
          116 115 120 129 121 128
          122 127 123 126 124 125
        </DataArray>
        <DataArray type="Int32" Name="offsets" format="ascii" RangeMin="22" RangeMax="240">
          22 44 66 88 110 132
          154 176 198 220 230 240
        </DataArray>
      </Strips>
      <Polys>
        <DataArray type="Int32" Name="connectivity" format="ascii" RangeMin="0" RangeMax="129">
        </DataArray>
        <DataArray type="Int32" Name="offsets" format="ascii" RangeMin="22" RangeMax="240">
        </DataArray>
      </Polys>
    </Piece>
  </PolyData>
</VTKFile>
