<?xml version="1.0"?>
<VTKFile type="PolyData" version="0.1" byte_order="LittleEndian" compressor="vtkZLibDataCompressor">
  <PolyData>
    <Piece NumberOfPoints="69" NumberOfVerts="0" NumberOfLines="0" NumberOfStrips="0" NumberOfPolys="134">
      <PointData Normals="Normals">
        <DataArray type="Float32" Name="Normals" NumberOfComponents="3" format="ascii" RangeMin="0.99999996287" RangeMax="1.0000000357">
          0.40673664212 0 0.91354542971 0.99452191591 0 0.10452841967
          0.99452191591 0 -0.10452850908 0.86602538824 0 -0.5000000596
          0.67147237062 0.34766623378 0.65441042185 0.84764975309 0.43888506293 0.29811039567
          0.8835298419 0.45746257901 -0.10051393509 0.77647638321 0.40203380585 -0.48523524404
          0.53547626734 0.27725192904 -0.79774469137 0.48888477683 0.61110597849 0.62252801657
          0.60044676065 0.75055849552 0.27590876818 0.62201929092 0.77752411366 -0.092456884682
          0.48888471723 0.61110591888 -0.62252813578 0.14981520176 0.4521073997 0.87929195166
          0.20832031965 0.62866222858 0.74925726652 0.30389922857 0.91709709167 0.25802746415
          0.31338337064 0.94571805 -0.086070977151 0.28417506814 0.85757422447 -0.42873188853
          0.14981515706 0.4521073103 -0.87929201126 -3.3844425928e-08 0.9678376317 0.25157558918
          -3.4846149077e-08 0.99648362398 -0.083787754178 -2.350982875e-08 0.67230266333 -0.74027633667
          -0.25283738971 0.76300418377 0.59489315748 -0.31338343024 0.94571805 -0.086070977151
          -0.28417509794 0.85757416487 -0.42873188853 -0.28114011884 0.35142511129 0.89300650358
          -0.60044682026 0.75055843592 0.27590876818 -0.62201935053 0.77752405405 -0.092456884682
          -0.5564866662 0.69560831785 -0.45436951518 -0.39679554105 0.49599441886 -0.77236187458
          -0.28114005923 0.35142502189 -0.89300656319 -0.67147243023 0.34766617417 0.65441048145
          -0.8476498127 0.43888494372 0.29811039567 -0.8835299015 0.4574624598 -0.10051393509
          -0.77647638321 0.40203374624 -0.48523527384 -0.53547626734 0.27725186944 -0.79774469137
          -0.58778524399 -6.423227461e-08 0.80901700258 -0.86602544785 -9.4637933046e-08 0.4999999702
          -0.99452191591 -1.0867983491e-07 -0.10452850908 -0.86602538824 -9.4637933046e-08 -0.5000000596
          -0.84764975309 -0.43888512254 0.29811036587 -0.8835297823 -0.45746263862 -0.10051393509
          -0.67147231102 -0.34766623378 -0.65441054106 -0.28114005923 -0.3514251411 0.89300650358
          -0.39679554105 -0.49599453807 0.77236175537 -0.60044670105 -0.75055849552 0.27590876818
          -0.62201923132 -0.77752417326 -0.092456884682 -0.5564866066 -0.69560837746 -0.45436951518
          -0.28113999963 -0.35142508149 -0.89300656319 -0.30389913917 -0.91709709167 0.25802746415
          -0.31338331103 -0.94571810961 -0.086070977151 -0.2528372407 -0.76300418377 -0.59489321709
          8.5122856319e-08 -0.81141000986 0.58447742462 1.0453843657e-07 -0.99648362398 -0.083787754178
          8.5122849214e-08 -0.81140989065 -0.58447748423 0.25283744931 -0.76300418377 0.59489315748
          0.30389934778 -0.91709703207 0.25802746415 0.31338351965 -0.9457179904 -0.086070977151
          0.28417518735 -0.85757416487 -0.42873188853 0.28114014864 -0.35142508149 0.89300650358
          0.60044687986 -0.75055837631 0.27590879798 0.62201941013 -0.77752399445 -0.092456884682
          0.55648672581 -0.69560825825 -0.45436951518 0.28114008904 -0.35142499208 -0.89300656319
          0.67147243023 -0.34766608477 0.65441042185 0.8476498127 -0.43888488412 0.29811039567
          0.8835299015 -0.4574623704 -0.10051394254 0.77647644281 -0.40203362703 -0.48523524404
          0.53547626734 -0.27725180984 -0.79774469137
        </DataArray>
      </PointData>
      <CellData>
      </CellData>
      <Points>
        <DataArray type="Float32" Name="Points" NumberOfComponents="3" format="ascii" RangeMin="0.4012273198" RangeMax="0.50000001261">
          0.20336832106 0 0.45677271485 0.49726095796 0 0.052264209837
          0.49726095796 0 -0.05226425454 0.43301269412 0 -0.2500000298
          0.34328815341 0.11375568807 0.33456528187 0.43933081627 0.14558143914 0.15450848639
          0.45940920711 0.15223482251 -0.05226425454 0.40005156398 0.13256542385 -0.2500000298
          0.27152135968 0.089974269271 -0.40450853109 0.26274138689 0.21019311249 0.33456528187
          0.33624926209 0.26899939775 0.15450848639 0.35161659122 0.28129327297 -0.05226425454
          0.26274135709 0.21019308269 -0.33456534147 0.077825680375 0.15031026304 0.45677271485
          0.11246783286 0.21721711755 0.40450850129 0.1819767803 0.35146468878 0.15450848639
          0.19029350579 0.36752736568 -0.05226425454 0.16570676863 0.32004123926 -0.2500000298
          0.077825665474 0.15031024814 -0.45677274466 -2.0786002253e-08 0.38042262197 0.15450848639
          -2.1735967692e-08 0.3978087604 -0.05226425454 -1.2846453679e-08 0.23511406779 -0.40450853109
          -0.14219462872 0.27463051677 0.33456528187 -0.19029355049 0.36752736568 -0.05226425454
          -0.16570679843 0.32004123926 -0.2500000298 -0.14380313456 0.11504249275 0.45677271485
          -0.3362492919 0.26899939775 0.15450848639 -0.35161662102 0.28129324317 -0.05226425454
          -0.30618622899 0.24494895339 -0.2500000298 -0.20781345665 0.16625075042 -0.40450853109
          -0.14380310476 0.1150424704 -0.45677274466 -0.34328815341 0.11375566572 0.33456528187
          -0.43933084607 0.14558139443 0.15450848639 -0.45940923691 0.15223479271 -0.05226425454
          -0.40005156398 0.13256540895 -0.2500000298 -0.27152135968 0.089974246919 -0.40450853109
          -0.29389262199 -2.0554328017e-08 0.40450850129 -0.43301272392 -3.0284137864e-08 0.2499999851
          -0.49726095796 -3.4777549729e-08 -0.05226425454 -0.43301269412 -3.0284137864e-08 -0.2500000298
          -0.43933081627 -0.14558145404 0.15450848639 -0.4594091773 -0.15223485231 -0.05226425454
          -0.34328812361 -0.11375570297 -0.33456534147 -0.14380310476 -0.11504250765 0.45677271485
          -0.20781345665 -0.16625079513 0.40450850129 -0.33624923229 -0.26899942756 0.15450848639
          -0.35161656141 -0.28129330277 -0.05226425454 -0.30618616939 -0.24494898319 -0.2500000298
          -0.14380307496 -0.1150424853 -0.45677274466 -0.18197673559 -0.35146468878 0.15450848639
          -0.19029347599 -0.36752739549 -0.05226425454 -0.14219455421 -0.27463051677 -0.33456534147
          4.872584114e-08 -0.29725795984 0.33456528187 6.5207899524e-08 -0.3978087604 -0.05226425454
          4.8725837587e-08 -0.29725793004 -0.33456534147 0.14219465852 -0.27463048697 0.33456528187
          0.1819768548 -0.35146465898 0.15450848639 0.19029359519 -0.36752733588 -0.05226425454
          0.16570684314 -0.32004123926 -0.2500000298 0.14380314946 -0.1150424853 0.45677271485
          0.3362493217 -0.26899936795 0.15450848639 0.35161665082 -0.28129321337 -0.05226425454
          0.30618625879 -0.24494893849 -0.2500000298 0.14380311966 -0.11504246294 -0.45677274466
          0.34328818321 -0.11375564337 0.33456528187 0.43933084607 -0.14558137953 0.15450848639
          0.45940923691 -0.15223476291 -0.05226425454 0.40005159378 -0.13256536424 -0.2500000298
          0.27152135968 -0.089974224567 -0.40450853109
        </DataArray>
      </Points>
      <Verts>
        <DataArray type="Int32" Name="connectivity" format="ascii" RangeMin="1e+299" RangeMax="-1e+299">
        </DataArray>
        <DataArray type="Int32" Name="offsets" format="ascii" RangeMin="1e+299" RangeMax="-1e+299">
        </DataArray>
      </Verts>
      <Lines>
        <DataArray type="Int32" Name="connectivity" format="ascii" RangeMin="1e+299" RangeMax="-1e+299">
        </DataArray>
        <DataArray type="Int32" Name="offsets" format="ascii" RangeMin="1e+299" RangeMax="-1e+299">
        </DataArray>
      </Lines>
      <Strips>
        <DataArray type="Int32" Name="connectivity" format="ascii" RangeMin="1e+299" RangeMax="-1e+299">
        </DataArray>
        <DataArray type="Int32" Name="offsets" format="ascii" RangeMin="1e+299" RangeMax="-1e+299">
        </DataArray>
      </Strips>
      <Polys>
        <DataArray type="Int32" Name="connectivity" format="ascii" RangeMin="0" RangeMax="68">
          43 59 25 59 0 25
          68 48 30 0 64 4
          64 5 4 64 1 5
          1 2 6 1 6 5
          2 7 6 2 3 7
          3 8 7 3 68 8
          0 4 9 4 5 10
          4 10 9 5 6 11
          5 11 10 6 7 12
          6 12 11 7 8 12
          8 68 18 8 18 12
          0 9 14 0 14 13
          9 10 15 9 15 14
          10 11 16 10 16 15
          11 12 17 11 17 16
          12 18 17 0 13 25
          14 22 13 14 15 19
          14 19 22 15 16 20
          15 20 19 16 17 24
          16 24 20 17 21 24
          17 18 21 18 68 30
          13 22 25 22 19 26
          19 20 23 19 23 26
          20 24 23 21 18 30
          21 30 24 22 31 25
          22 26 31 26 23 27
          23 24 28 23 28 27
          24 29 28 24 30 29
          25 31 36 31 26 32
          26 27 33 26 33 32
          27 28 34 27 34 33
          28 29 35 28 35 34
          29 30 48 29 48 35
          36 31 37 31 32 37
          32 38 37 32 33 38
          33 34 38 34 39 38
          34 35 39 37 40 36
          37 38 40 38 41 40
          38 42 41 38 39 42
          39 35 42 25 36 44
          25 44 43 36 40 45
          36 45 44 40 41 46
          40 46 45 41 42 47
          41 47 46 42 35 48
          42 48 47 44 52 43
          44 45 49 44 49 52
          45 46 50 45 50 49
          46 47 51 46 51 50
          47 48 51 52 49 56
          49 50 53 49 53 56
          50 51 54 50 54 53
          51 63 54 51 48 63
          43 55 59 43 52 55
          52 56 55 56 53 57
          53 54 58 53 58 57
          54 63 58 63 48 68
          55 64 59 55 56 60
          55 60 64 56 57 61
          56 61 60 57 58 62
          57 62 61 58 63 62
          59 64 0 64 60 65
          60 61 66 60 66 65
          61 62 67 61 67 66
          62 63 68 62 68 67
          65 1 64 65 66 2
          65 2 1 66 67 2
          67 3 2 67 68 3
        </DataArray>
        <DataArray type="Int32" Name="offsets" format="ascii" RangeMin="3" RangeMax="402">
          3 6 9 12 15 18
          21 24 27 30 33 36
          39 42 45 48 51 54
          57 60 63 66 69 72
          75 78 81 84 87 90
          93 96 99 102 105 108
          111 114 117 120 123 126
          129 132 135 138 141 144
          147 150 153 156 159 162
          165 168 171 174 177 180
          183 186 189 192 195 198
          201 204 207 210 213 216
          219 222 225 228 231 234
          237 240 243 246 249 252
          255 258 261 264 267 270
          273 276 279 282 285 288
          291 294 297 300 303 306
          309 312 315 318 321 324
          327 330 333 336 339 342
          345 348 351 354 357 360
          363 366 369 372 375 378
          381 384 387 390 393 396
          399 402
        </DataArray>
      </Polys>
    </Piece>
  </PolyData>
</VTKFile>
