<VTKFile type="PolyData" version="0.1" byte_order="LittleEndian">
  <PolyData>
    <Piece NumberOfPoints="101" NumberOfVerts="0" NumberOfLines="1" NumberOfStrips="0" NumberOfPolys="0">
      <PointData TCoords="Texture Coordinates">
        <DataArray type="Float32" Name="Texture Coordinates" NumberOfComponents="2" format="ascii" RangeMin="0" RangeMax="1">
          0 0 0.0099999997765 0 0.019999999553 0
          0.029999999329 0 0.039999999106 0 0.050000000745 0
          0.059999998659 0 0.070000000298 0 0.079999998212 0
          0.090000003576 0 0.10000000149 0 0.1099999994 0
          0.11999999732 0 0.12999999523 0 0.1400000006 0
          0.15000000596 0 0.15999999642 0 0.17000000179 0
          0.18000000715 0 0.18999999762 0 0.20000000298 0
          0.20999999344 0 0.21999999881 0 0.23000000417 0
          0.23999999464 0 0.25 0 0.25999999046 0
          0.27000001073 0 0.28000000119 0 0.28999999166 0
          0.30000001192 0 0.31000000238 0 0.31999999285 0
          0.33000001311 0 0.34000000358 0 0.34999999404 0
          0.36000001431 0 0.37000000477 0 0.37999999523 0
          0.38999998569 0 0.40000000596 0 0.40999999642 0
          0.41999998689 0 0.43000000715 0 0.43999999762 0
          0.44999998808 0 0.46000000834 0 0.46999999881 0
          0.47999998927 0 0.49000000954 0 0.5 0
          0.50999999046 0 0.51999998093 0 0.52999997139 0
          0.54000002146 0 0.55000001192 0 0.56000000238 0
          0.56999999285 0 0.57999998331 0 0.58999997377 0
          0.60000002384 0 0.61000001431 0 0.62000000477 0
          0.62999999523 0 0.63999998569 0 0.64999997616 0
          0.66000002623 0 0.67000001669 0 0.68000000715 0
          0.68999999762 0 0.69999998808 0 0.70999997854 0
          0.72000002861 0 0.73000001907 0 0.74000000954 0
          0.75 0 0.75999999046 0 0.76999998093 0
          0.77999997139 0 0.79000002146 0 0.80000001192 0
          0.81000000238 0 0.81999999285 0 0.82999998331 0
          0.83999997377 0 0.85000002384 0 0.86000001431 0
          0.87000000477 0 0.87999999523 0 0.88999998569 0
          0.89999997616 0 0.91000002623 0 0.92000001669 0
          0.93000000715 0 0.93999999762 0 0.94999998808 0
          0.95999997854 0 0.97000002861 0 0.98000001907 0
          0.99000000954 0 1 0
        </DataArray>
      </PointData>
      <CellData>
      </CellData>
      <Points>
        <DataArray type="Float32" Name="Points" NumberOfComponents="3" format="ascii" RangeMin="0" RangeMax="2.5">
          -2.5 0 0 -2.4500000477 0 0
          -2.4000000954 0 0 -2.3499999046 0 0
          -2.2999999523 0 0 -2.25 0 0
          -2.2000000477 0 0 -2.1500000954 0 0
          -2.0999999046 0 0 -2.0499999523 0 0
          -2 0 0 -1.9500000477 0 0
          -1.8999999762 0 0 -1.8500000238 0 0
          -1.7999999523 0 0 -1.75 0 0
          -1.7000000477 0 0 -1.6499999762 0 0
          -1.6000000238 0 0 -1.5499999523 0 0
          -1.5 0 0 -1.4500000477 0 0
          -1.3999999762 0 0 -1.3500000238 0 0
          -1.2999999523 0 0 -1.25 0 0
          -1.2000000477 0 0 -1.1499999762 0 0
          -1.1000000238 0 0 -1.0499999523 0 0
          -1 0 0 -0.94999998808 0 0
          -0.89999997616 0 0 -0.85000002384 0 0
          -0.80000001192 0 0 -0.75 0 0
          -0.69999998808 0 0 -0.64999997616 0 0
          -0.60000002384 0 0 -0.55000001192 0 0
          -0.5 0 0 -0.44999998808 0 0
          -0.40000000596 0 0 -0.34999999404 0 0
          -0.30000001192 0 0 -0.25 0 0
          -0.20000000298 0 0 -0.15000000596 0 0
          -0.10000000149 0 0 -0.050000000745 0 0
          0 0 0 0.050000000745 0 0
          0.10000000149 0 0 0.15000000596 0 0
          0.20000000298 0 0 0.25 0 0
          0.30000001192 0 0 0.34999999404 0 0
          0.40000000596 0 0 0.44999998808 0 0
          0.5 0 0 0.55000001192 0 0
          0.60000002384 0 0 0.64999997616 0 0
          0.69999998808 0 0 0.75 0 0
          0.80000001192 0 0 0.85000002384 0 0
          0.89999997616 0 0 0.94999998808 0 0
          1 0 0 1.0499999523 0 0
          1.1000000238 0 0 1.1499999762 0 0
          1.2000000477 0 0 1.25 0 0
          1.2999999523 0 0 1.3500000238 0 0
          1.3999999762 0 0 1.4500000477 0 0
          1.5 0 0 1.5499999523 0 0
          1.6000000238 0 0 1.6499999762 0 0
          1.7000000477 0 0 1.75 0 0
          1.7999999523 0 0 1.8500000238 0 0
          1.8999999762 0 0 1.9500000477 0 0
          2 0 0 2.0499999523 0 0
          2.0999999046 0 0 2.1500000954 0 0
          2.2000000477 0 0 2.25 0 0
          2.2999999523 0 0 2.3499999046 0 0
          2.4000000954 0 0 2.4500000477 0 0
          2.5 0 0
        </DataArray>
      </Points>
      <Verts>
        <DataArray type="Int32" Name="connectivity" format="ascii" RangeMin="1e+299" RangeMax="-1e+299">
        </DataArray>
        <DataArray type="Int32" Name="offsets" format="ascii" RangeMin="1e+299" RangeMax="-1e+299">
        </DataArray>
      </Verts>
      <Lines>
        <DataArray type="Int32" Name="connectivity" format="ascii" RangeMin="0" RangeMax="100">
          0 1 2 3 4 5
          6 7 8 9 10 11
          12 13 14 15 16 17
          18 19 20 21 22 23
          24 25 26 27 28 29
          30 31 32 33 34 35
          36 37 38 39 40 41
          42 43 44 45 46 47
          48 49 50 51 52 53
          54 55 56 57 58 59
          60 61 62 63 64 65
          66 67 68 69 70 71
          72 73 74 75 76 77
          78 79 80 81 82 83
          84 85 86 87 88 89
          90 91 92 93 94 95
          96 97 98 99 100
        </DataArray>
        <DataArray type="Int32" Name="offsets" format="ascii" RangeMin="101" RangeMax="101">
          101
        </DataArray>
      </Lines>
      <Strips>
        <DataArray type="Int32" Name="connectivity" format="ascii" RangeMin="0" RangeMax="100">
        </DataArray>
        <DataArray type="Int32" Name="offsets" format="ascii" RangeMin="101" RangeMax="101">
        </DataArray>
      </Strips>
      <Polys>
        <DataArray type="Int32" Name="connectivity" format="ascii" RangeMin="0" RangeMax="100">
        </DataArray>
        <DataArray type="Int32" Name="offsets" format="ascii" RangeMin="101" RangeMax="101">
        </DataArray>
      </Polys>
    </Piece>
  </PolyData>
</VTKFile>
