<?xml version="1.0"?>
<VTKFile type="PolyData" version="0.1" byte_order="LittleEndian" compressor="vtkZLibDataCompressor">
  <PolyData>
    <Piece NumberOfPoints="50" NumberOfVerts="0" NumberOfLines="0" NumberOfStrips="0" NumberOfPolys="96">
      <PointData Normals="Normals">
        <DataArray type="Float32" Name="Normals" NumberOfComponents="3" format="ascii" RangeMin="0.9999999777" RangeMax="1.0000000158">
          0 0 1 0 0 -1
          0.4338837564 0 0.90096884966 0.78183150291 0 0.62348979712
          0.97492790222 0 0.22252090275 0.97492790222 0 -0.22252097726
          0.78183144331 0 -0.62348985672 0.43388366699 0 -0.90096890926
          0.30680212379 0.30680215359 0.90096884966 0.5528383255 0.55283838511 0.62348979712
          0.68937814236 0.68937814236 0.22252090275 0.68937814236 0.68937814236 -0.22252097726
          0.5528383255 0.5528383255 -0.62348985672 0.30680209398 0.30680209398 -0.90096890926
          -1.8965661042e-08 0.4338837564 0.90096884966 -3.4174941987e-08 0.78183150291 0.62348979712
          -4.2615454277e-08 0.97492790222 0.22252090275 -4.2615454277e-08 0.97492790222 -0.22252097726
          -3.4174938435e-08 0.78183144331 -0.62348985672 -1.8965659265e-08 0.43388366699 -0.90096890926
          -0.30680215359 0.30680212379 0.90096884966 -0.55283838511 0.5528383255 0.62348979712
          -0.68937820196 0.68937808275 0.22252090275 -0.68937820196 0.68937808275 -0.22252097726
          -0.5528383255 0.5528382659 -0.62348985672 -0.30680209398 0.30680206418 -0.90096890926
          -0.4338837564 -3.7931322083e-08 0.90096884966 -0.78183150291 -6.8349883975e-08 0.62348979712
          -0.97492790222 -8.5230908553e-08 0.22252090275 -0.97492790222 -8.5230908553e-08 -0.22252097726
          -0.78183144331 -6.8349876869e-08 -0.62348985672 -0.43388366699 -3.7931318531e-08 -0.90096890926
          -0.30680209398 -0.30680218339 0.90096884966 -0.5528382659 -0.55283838511 0.62348979712
          -0.68937808275 -0.68937820196 0.22252090275 -0.68937808275 -0.68937820196 -0.22252097726
          -0.5528382659 -0.55283838511 -0.62348985672 -0.30680206418 -0.30680212379 -0.90096890926
          5.6896986678e-08 -0.4338837564 0.90096884966 1.0252482241e-07 -0.78183150291 0.62348979712
          1.2784636283e-07 -0.97492790222 0.22252090275 1.2784636283e-07 -0.97492790222 -0.22252097726
          1.025248153e-07 -0.78183144331 -0.62348985672 5.689697602e-08 -0.43388366699 -0.90096890926
          0.30680218339 -0.30680209398 0.90096884966 0.55283844471 -0.5528382659 0.62348979712
          0.68937826157 -0.68937802315 0.22252090275 0.68937826157 -0.68937802315 -0.22252097726
          0.55283838511 -0.55283820629 -0.62348985672 0.30680212379 -0.30680203438 -0.90096890926
        </DataArray>
      </PointData>
      <CellData>
      </CellData>
      <Points>
        <DataArray type="Float32" Name="Points" NumberOfComponents="3" format="ascii" RangeMin="0.9999999777" RangeMax="1.0000000158">
          0 0 1 0 0 -1
          0.4338837564 0 0.90096884966 0.78183150291 0 0.62348979712
          0.97492790222 0 0.22252090275 0.97492790222 0 -0.22252097726
          0.78183144331 0 -0.62348985672 0.43388366699 0 -0.90096890926
          0.30680212379 0.30680215359 0.90096884966 0.5528383255 0.55283838511 0.62348979712
          0.68937814236 0.68937814236 0.22252090275 0.68937814236 0.68937814236 -0.22252097726
          0.5528383255 0.5528383255 -0.62348985672 0.30680209398 0.30680209398 -0.90096890926
          -1.8965661042e-08 0.4338837564 0.90096884966 -3.4174941987e-08 0.78183150291 0.62348979712
          -4.2615454277e-08 0.97492790222 0.22252090275 -4.2615454277e-08 0.97492790222 -0.22252097726
          -3.4174938435e-08 0.78183144331 -0.62348985672 -1.8965659265e-08 0.43388366699 -0.90096890926
          -0.30680215359 0.30680212379 0.90096884966 -0.55283838511 0.5528383255 0.62348979712
          -0.68937820196 0.68937808275 0.22252090275 -0.68937820196 0.68937808275 -0.22252097726
          -0.5528383255 0.5528382659 -0.62348985672 -0.30680209398 0.30680206418 -0.90096890926
          -0.4338837564 -3.7931322083e-08 0.90096884966 -0.78183150291 -6.8349883975e-08 0.62348979712
          -0.97492790222 -8.5230908553e-08 0.22252090275 -0.97492790222 -8.5230908553e-08 -0.22252097726
          -0.78183144331 -6.8349876869e-08 -0.62348985672 -0.43388366699 -3.7931318531e-08 -0.90096890926
          -0.30680209398 -0.30680218339 0.90096884966 -0.5528382659 -0.55283838511 0.62348979712
          -0.68937808275 -0.68937820196 0.22252090275 -0.68937808275 -0.68937820196 -0.22252097726
          -0.5528382659 -0.55283838511 -0.62348985672 -0.30680206418 -0.30680212379 -0.90096890926
          5.6896986678e-08 -0.4338837564 0.90096884966 1.0252482241e-07 -0.78183150291 0.62348979712
          1.2784636283e-07 -0.97492790222 0.22252090275 1.2784636283e-07 -0.97492790222 -0.22252097726
          1.025248153e-07 -0.78183144331 -0.62348985672 5.689697602e-08 -0.43388366699 -0.90096890926
          0.30680218339 -0.30680209398 0.90096884966 0.55283844471 -0.5528382659 0.62348979712
          0.68937826157 -0.68937802315 0.22252090275 0.68937826157 -0.68937802315 -0.22252097726
          0.55283838511 -0.55283820629 -0.62348985672 0.30680212379 -0.30680203438 -0.90096890926
        </DataArray>
      </Points>
      <Verts>
        <DataArray type="Int32" Name="connectivity" format="ascii" RangeMin="1e+299" RangeMax="-1e+299">
        </DataArray>
        <DataArray type="Int32" Name="offsets" format="ascii" RangeMin="1e+299" RangeMax="-1e+299">
        </DataArray>
      </Verts>
      <Lines>
        <DataArray type="Int32" Name="connectivity" format="ascii" RangeMin="1e+299" RangeMax="-1e+299">
        </DataArray>
        <DataArray type="Int32" Name="offsets" format="ascii" RangeMin="1e+299" RangeMax="-1e+299">
        </DataArray>
      </Lines>
      <Strips>
        <DataArray type="Int32" Name="connectivity" format="ascii" RangeMin="1e+299" RangeMax="-1e+299">
        </DataArray>
        <DataArray type="Int32" Name="offsets" format="ascii" RangeMin="1e+299" RangeMax="-1e+299">
        </DataArray>
      </Strips>
      <Polys>
        <DataArray type="Int32" Name="connectivity" format="ascii" RangeMin="0" RangeMax="49">
          2 8 0 8 14 0
          14 20 0 20 26 0
          26 32 0 32 38 0
          38 44 0 44 2 0
          7 1 13 13 1 19
          19 1 25 25 1 31
          31 1 37 37 1 43
          43 1 49 49 1 7
          2 3 9 2 9 8
          3 4 10 3 10 9
          4 5 11 4 11 10
          5 6 12 5 12 11
          6 7 13 6 13 12
          8 9 15 8 15 14
          9 10 16 9 16 15
          10 11 17 10 17 16
          11 12 18 11 18 17
          12 13 19 12 19 18
          14 15 21 14 21 20
          15 16 22 15 22 21
          16 17 23 16 23 22
          17 18 24 17 24 23
          18 19 25 18 25 24
          20 21 27 20 27 26
          21 22 28 21 28 27
          22 23 29 22 29 28
          23 24 30 23 30 29
          24 25 31 24 31 30
          26 27 33 26 33 32
          27 28 34 27 34 33
          28 29 35 28 35 34
          29 30 36 29 36 35
          30 31 37 30 37 36
          32 33 39 32 39 38
          33 34 40 33 40 39
          34 35 41 34 41 40
          35 36 42 35 42 41
          36 37 43 36 43 42
          38 39 45 38 45 44
          39 40 46 39 46 45
          40 41 47 40 47 46
          41 42 48 41 48 47
          42 43 49 42 49 48
          44 45 3 44 3 2
          45 46 4 45 4 3
          46 47 5 46 5 4
          47 48 6 47 6 5
          48 49 7 48 7 6
        </DataArray>
        <DataArray type="Int32" Name="offsets" format="ascii" RangeMin="3" RangeMax="288">
          3 6 9 12 15 18
          21 24 27 30 33 36
          39 42 45 48 51 54
          57 60 63 66 69 72
          75 78 81 84 87 90
          93 96 99 102 105 108
          111 114 117 120 123 126
          129 132 135 138 141 144
          147 150 153 156 159 162
          165 168 171 174 177 180
          183 186 189 192 195 198
          201 204 207 210 213 216
          219 222 225 228 231 234
          237 240 243 246 249 252
          255 258 261 264 267 270
          273 276 279 282 285 288
        </DataArray>
      </Polys>
    </Piece>
  </PolyData>
</VTKFile>
