<VTKFile type="UnstructuredGrid" version="0.1" byte_order="LittleEndian">
  <UnstructuredGrid>
    <Piece NumberOfPoints="50" NumberOfCells="96">
      <PointData Scalars="RegionId" Normals="Normals">
        <DataArray type="Float32" Name="Normals" NumberOfComponents="3" format="ascii" RangeMin="0.9999999777" RangeMax="1.0000000158">
          0.4338837564 0 0.90096884966 0.30680212379 0.30680215359 0.90096884966
          0 0 1 0.30680218339 -0.30680209398 0.90096884966
          0.78183150291 0 0.62348979712 0.5528383255 0.55283838511 0.62348979712
          -1.8965661042e-08 0.4338837564 0.90096884966 -3.4174941987e-08 0.78183150291 0.62348979712
          -0.30680215359 0.30680212379 0.90096884966 -0.4338837564 -3.7931322083e-08 0.90096884966
          -0.30680209398 -0.30680218339 0.90096884966 5.6896986678e-08 -0.4338837564 0.90096884966
          0.55283844471 -0.5528382659 0.62348979712 0.97492790222 0 0.22252090275
          0.68937814236 0.68937814236 0.22252090275 -4.2615454277e-08 0.97492790222 0.22252090275
          -0.55283838511 0.5528383255 0.62348979712 -0.68937820196 0.68937808275 0.22252090275
          -0.78183150291 -6.8349883975e-08 0.62348979712 -0.5528382659 -0.55283838511 0.62348979712
          1.0252482241e-07 -0.78183150291 0.62348979712 0.68937826157 -0.68937802315 0.22252090275
          0.97492790222 0 -0.22252097726 0.68937814236 0.68937814236 -0.22252097726
          -4.2615454277e-08 0.97492790222 -0.22252097726 -0.68937820196 0.68937808275 -0.22252097726
          -0.97492790222 -8.5230908553e-08 0.22252090275 -0.97492790222 -8.5230908553e-08 -0.22252097726
          -0.68937808275 -0.68937820196 0.22252090275 1.2784636283e-07 -0.97492790222 0.22252090275
          0.68937826157 -0.68937802315 -0.22252097726 0.78183144331 0 -0.62348985672
          0.5528383255 0.5528383255 -0.62348985672 -3.4174938435e-08 0.78183144331 -0.62348985672
          -0.5528383255 0.5528382659 -0.62348985672 -0.78183144331 -6.8349876869e-08 -0.62348985672
          -0.68937808275 -0.68937820196 -0.22252097726 -0.5528382659 -0.55283838511 -0.62348985672
          1.2784636283e-07 -0.97492790222 -0.22252097726 0.55283838511 -0.55283820629 -0.62348985672
          0.43388366699 0 -0.90096890926 0.30680209398 0.30680209398 -0.90096890926
          -1.8965659265e-08 0.43388366699 -0.90096890926 -0.30680209398 0.30680206418 -0.90096890926
          -0.43388366699 -3.7931318531e-08 -0.90096890926 -0.30680206418 -0.30680212379 -0.90096890926
          1.025248153e-07 -0.78183144331 -0.62348985672 5.689697602e-08 -0.43388366699 -0.90096890926
          0.30680212379 -0.30680203438 -0.90096890926 0 0 -1
        </DataArray>
        <DataArray type="Int32" Name="RegionId" format="ascii" RangeMin="0" RangeMax="0">
          0 0 0 0 0 0
          0 0 0 0 0 0
          0 0 0 0 0 0
          0 0 0 0 0 0
          0 0 0 0 0 0
          0 0 0 0 0 0
          0 0 0 0 0 0
          0 0 0 0 0 0
          0 0
        </DataArray>
      </PointData>
      <CellData Scalars="RegionId">
        <DataArray type="Int32" Name="RegionId" format="ascii" RangeMin="0" RangeMax="0">
          0 0 0 0 0 0
          0 0 0 0 0 0
          0 0 0 0 0 0
          0 0 0 0 0 0
          0 0 0 0 0 0
          0 0 0 0 0 0
          0 0 0 0 0 0
          0 0 0 0 0 0
          0 0 0 0 0 0
          0 0 0 0 0 0
          0 0 0 0 0 0
          0 0 0 0 0 0
          0 0 0 0 0 0
          0 0 0 0 0 0
          0 0 0 0 0 0
          0 0 0 0 0 0
        </DataArray>
      </CellData>
      <Points>
        <DataArray type="Float32" Name="Points" NumberOfComponents="3" format="ascii" RangeMin="0.9999999777" RangeMax="1.0000000158">
          0.4338837564 0 0.90096884966 0.30680212379 0.30680215359 0.90096884966
          0 0 1 0.30680218339 -0.30680209398 0.90096884966
          0.78183150291 0 0.62348979712 0.5528383255 0.55283838511 0.62348979712
          -1.8965661042e-08 0.4338837564 0.90096884966 -3.4174941987e-08 0.78183150291 0.62348979712
          -0.30680215359 0.30680212379 0.90096884966 -0.4338837564 -3.7931322083e-08 0.90096884966
          -0.30680209398 -0.30680218339 0.90096884966 5.6896986678e-08 -0.4338837564 0.90096884966
          0.55283844471 -0.5528382659 0.62348979712 0.97492790222 0 0.22252090275
          0.68937814236 0.68937814236 0.22252090275 -4.2615454277e-08 0.97492790222 0.22252090275
          -0.55283838511 0.5528383255 0.62348979712 -0.68937820196 0.68937808275 0.22252090275
          -0.78183150291 -6.8349883975e-08 0.62348979712 -0.5528382659 -0.55283838511 0.62348979712
          1.0252482241e-07 -0.78183150291 0.62348979712 0.68937826157 -0.68937802315 0.22252090275
          0.97492790222 0 -0.22252097726 0.68937814236 0.68937814236 -0.22252097726
          -4.2615454277e-08 0.97492790222 -0.22252097726 -0.68937820196 0.68937808275 -0.22252097726
          -0.97492790222 -8.5230908553e-08 0.22252090275 -0.97492790222 -8.5230908553e-08 -0.22252097726
          -0.68937808275 -0.68937820196 0.22252090275 1.2784636283e-07 -0.97492790222 0.22252090275
          0.68937826157 -0.68937802315 -0.22252097726 0.78183144331 0 -0.62348985672
          0.5528383255 0.5528383255 -0.62348985672 -3.4174938435e-08 0.78183144331 -0.62348985672
          -0.5528383255 0.5528382659 -0.62348985672 -0.78183144331 -6.8349876869e-08 -0.62348985672
          -0.68937808275 -0.68937820196 -0.22252097726 -0.5528382659 -0.55283838511 -0.62348985672
          1.2784636283e-07 -0.97492790222 -0.22252097726 0.55283838511 -0.55283820629 -0.62348985672
          0.43388366699 0 -0.90096890926 0.30680209398 0.30680209398 -0.90096890926
          -1.8965659265e-08 0.43388366699 -0.90096890926 -0.30680209398 0.30680206418 -0.90096890926
          -0.43388366699 -3.7931318531e-08 -0.90096890926 -0.30680206418 -0.30680212379 -0.90096890926
          1.025248153e-07 -0.78183144331 -0.62348985672 5.689697602e-08 -0.43388366699 -0.90096890926
          0.30680212379 -0.30680203438 -0.90096890926 0 0 -1
        </DataArray>
      </Points>
      <Cells>
        <DataArray type="Int32" Name="connectivity" format="ascii" RangeMin="0" RangeMax="49">
          0 1 2 1 6 2
          6 8 2 8 9 2
          9 10 2 10 11 2
          11 3 2 3 0 2
          40 49 41 41 49 42
          42 49 43 43 49 44
          44 49 45 45 49 47
          47 49 48 48 49 40
          0 4 5 0 5 1
          4 13 14 4 14 5
          13 22 23 13 23 14
          22 31 32 22 32 23
          31 40 41 31 41 32
          1 5 7 1 7 6
          5 14 15 5 15 7
          14 23 24 14 24 15
          23 32 33 23 33 24
          32 41 42 32 42 33
          6 7 16 6 16 8
          7 15 17 7 17 16
          15 24 25 15 25 17
          24 33 34 24 34 25
          33 42 43 33 43 34
          8 16 18 8 18 9
          16 17 26 16 26 18
          17 25 27 17 27 26
          25 34 35 25 35 27
          34 43 44 34 44 35
          9 18 19 9 19 10
          18 26 28 18 28 19
          26 27 36 26 36 28
          27 35 37 27 37 36
          35 44 45 35 45 37
          10 19 20 10 20 11
          19 28 29 19 29 20
          28 36 38 28 38 29
          36 37 46 36 46 38
          37 45 47 37 47 46
          11 20 12 11 12 3
          20 29 21 20 21 12
          29 38 30 29 30 21
          38 46 39 38 39 30
          46 47 48 46 48 39
          3 12 4 3 4 0
          12 21 13 12 13 4
          21 30 22 21 22 13
          30 39 31 30 31 22
          39 48 40 39 40 31
        </DataArray>
        <DataArray type="Int32" Name="offsets" format="ascii" RangeMin="3" RangeMax="288">
          3 6 9 12 15 18
          21 24 27 30 33 36
          39 42 45 48 51 54
          57 60 63 66 69 72
          75 78 81 84 87 90
          93 96 99 102 105 108
          111 114 117 120 123 126
          129 132 135 138 141 144
          147 150 153 156 159 162
          165 168 171 174 177 180
          183 186 189 192 195 198
          201 204 207 210 213 216
          219 222 225 228 231 234
          237 240 243 246 249 252
          255 258 261 264 267 270
          273 276 279 282 285 288
        </DataArray>
        <DataArray type="UInt8" Name="types" format="ascii" RangeMin="5" RangeMax="5">
          5 5 5 5 5 5
          5 5 5 5 5 5
          5 5 5 5 5 5
          5 5 5 5 5 5
          5 5 5 5 5 5
          5 5 5 5 5 5
          5 5 5 5 5 5
          5 5 5 5 5 5
          5 5 5 5 5 5
          5 5 5 5 5 5
          5 5 5 5 5 5
          5 5 5 5 5 5
          5 5 5 5 5 5
          5 5 5 5 5 5
          5 5 5 5 5 5
          5 5 5 5 5 5
        </DataArray>
      </Cells>
    </Piece>
  </UnstructuredGrid>
</VTKFile>
