<VTKFile type="UnstructuredGrid" version="0.1" byte_order="LittleEndian">
  <UnstructuredGrid>
    <Piece NumberOfPoints="226" NumberOfCells="448">
      <PointData Scalars="RegionId" Normals="Normals">
        <DataArray type="Float32" Name="Normals" NumberOfComponents="3" format="ascii" RangeMin="0.99999996765" RangeMax="1.0000000399">
          0.20791170001 0 0.97814762592 0.19208535552 0.079564362764 0.97814762592
          0 0 1 0.19208537042 -0.079564332962 0.97814762592
          0.40673664212 0 0.91354542971 0.37577566504 0.15565137565 0.91354542971
          0.14701576531 0.14701578021 0.97814762592 0.28760623932 0.28760623932 0.91354542971
          0.079564355314 0.19208537042 0.97814762592 -9.0881089321e-09 0.20791170001 0.97814762592
          -0.079564370215 0.19208535552 0.97814762592 -0.14701578021 0.14701576531 0.97814762592
          -0.19208537042 0.079564347863 0.97814762592 -0.20791170001 -1.8176217864e-08 0.97814762592
          -0.19208535552 -0.079564377666 0.97814762592 -0.14701575041 -0.14701578021 0.97814762592
          -0.079564340413 -0.19208537042 0.97814762592 2.7264327684e-08 -0.20791170001 0.97814762592
          0.079564392567 -0.19208535552 0.97814762592 0.14701579511 -0.14701575041 0.97814762592
          0.37577569485 -0.15565131605 0.91354542971 0.58778524399 0 0.80901700258
          0.54304277897 0.22493569553 0.80901700258 0.41562694311 0.41562694311 0.80901700258
          0.15565136075 0.37577566504 0.91354542971 0.22493566573 0.54304277897 0.80901700258
          -1.7779024475e-08 0.40673664212 0.91354542971 -0.15565140545 0.37577566504 0.91354542971
          -0.28760626912 0.28760623932 0.91354542971 -0.37577569485 0.15565134585 0.91354542971
          -0.40673664212 -3.555804895e-08 0.91354542971 -0.37577566504 -0.15565142035 0.91354542971
          -0.28760620952 -0.28760626912 0.91354542971 -0.15565133095 -0.37577569485 0.91354542971
          5.3337075201e-08 -0.40673664212 0.91354542971 0.15565143526 -0.37577563524 0.91354542971
          0.28760629892 -0.28760620952 0.91354542971 0.54304283857 -0.22493559122 0.80901700258
          0.7431448698 0 0.66913056374 0.68657630682 0.28438922763 0.66913056374
          0.52548277378 0.52548277378 0.66913056374 0.28438919783 0.68657630682 0.66913056374
          -2.569291091e-08 0.58778524399 0.80901700258 -3.2483892909e-08 0.7431448698 0.66913056374
          -0.22493571043 0.54304277897 0.80901700258 -0.41562697291 0.41562691331 0.80901700258
          -0.54304277897 0.22493563592 0.80901700258 -0.58778524399 -5.138582182e-08 0.80901700258
          -0.54304277897 -0.22493574023 0.80901700258 -0.41562691331 -0.41562700272 0.80901700258
          -0.22493562102 -0.54304277897 0.80901700258 7.7078730953e-08 -0.58778524399 0.80901700258
          0.22493575513 -0.54304271936 0.80901700258 0.41562700272 -0.41562688351 0.80901700258
          0.68657636642 -0.28438910842 0.66913056374 0.86602544785 0 0.4999999702
          0.80010312796 0.33141359687 0.4999999702 0.61237245798 0.61237245798 0.4999999702
          0.33141356707 0.80010318756 0.4999999702 -3.7855173218e-08 0.86602544785 0.4999999702
          -0.28438925743 0.68657630682 0.66913056374 -0.33141362667 0.80010312796 0.4999999702
          -0.52548277378 0.52548271418 0.66913056374 -0.68657630682 0.28438916802 0.66913056374
          -0.7431448698 -6.4967785818e-08 0.66913056374 -0.68657630682 -0.28438928723 0.66913056374
          -0.52548271418 -0.52548283339 0.66913056374 -0.28438913822 -0.68657636642 0.66913056374
          9.7451682279e-08 -0.7431448698 0.66913056374 0.28438931704 -0.68657624722 0.66913056374
          0.52548283339 -0.52548265457 0.66913056374 0.80010318756 -0.33141344786 0.4999999702
          0.95105654001 0 0.30901697278 0.87866163254 0.36395359039 0.30901697278
          0.67249852419 0.67249852419 0.30901697278 0.36395356059 0.87866169214 0.30901697278
          -4.1572004505e-08 0.95105654001 0.30901697278 -0.3639536202 0.87866163254 0.30901697278
          -0.61237245798 0.61237239838 0.4999999702 -0.67249858379 0.67249846458 0.30901697278
          -0.80010318756 0.33141350746 0.4999999702 -0.86602544785 -7.5710346437e-08 0.4999999702
          -0.80010312796 -0.33141365647 0.4999999702 -0.61237239838 -0.61237251759 0.4999999702
          -0.33141347766 -0.80010318756 0.4999999702 1.1356552676e-07 -0.86602544785 0.4999999702
          0.33141368628 -0.80010312796 0.4999999702 0.61237251759 -0.61237233877 0.4999999702
          0.87866169214 -0.36395344138 0.30901697278 0.99452191591 0 0.10452841967
          0.91881841421 0.38058707118 0.10452841967 0.70323318243 0.70323318243 0.10452841967
          0.38058701158 0.91881841421 0.10452841967 -4.3471935385e-08 0.99452191591 0.10452841967
          -0.38058710098 0.91881841421 0.10452841967 -0.70323324203 0.70323312283 0.10452841967
          -0.87866169214 0.36395350099 0.30901697278 -0.91881847382 0.38058698177 0.10452841967
          -0.95105654001 -8.3144009011e-08 0.30901697278 -0.87866163254 -0.36395365 0.30901697278
          -0.67249846458 -0.67249858379 0.30901697278 -0.36395347118 -0.87866169214 0.30901697278
          1.2471600996e-07 -0.95105654001 0.30901697278 0.3639537096 -0.87866163254 0.30901697278
          0.6724986434 -0.67249840498 0.30901697278 0.91881847382 -0.38058689237 0.10452841967
          0.99452191591 0 -0.10452850908 0.91881841421 0.38058707118 -0.10452850908
          0.70323318243 0.70323318243 -0.10452850908 0.38058701158 0.91881841421 -0.10452850908
          -4.3471935385e-08 0.99452191591 -0.10452850908 -0.38058710098 0.91881841421 -0.10452850908
          -0.70323324203 0.70323312283 -0.10452850908 -0.91881847382 0.38058698177 -0.10452850908
          -0.99452191591 -8.694387077e-08 0.10452841967 -0.99452191591 -8.694387077e-08 -0.10452850908
          -0.91881841421 -0.38058713078 0.10452841967 -0.70323312283 -0.70323324203 0.10452841967
          -0.38058695197 -0.91881847382 0.10452841967 1.3041579905e-07 -0.99452191591 0.10452841967
          0.38058719039 -0.91881835461 0.10452841967 0.70323330164 -0.70323306322 0.10452841967
          0.91881847382 -0.38058689237 -0.10452850908 0.95105648041 0 -0.30901703238
          0.87866163254 0.36395356059 -0.30901703238 0.67249846458 0.67249852419 -0.30901703238
          0.36395353079 0.87866163254 -0.30901703238 -4.1572000953e-08 0.95105648041 -0.30901703238
          -0.3639536202 0.87866163254 -0.30901703238 -0.67249852419 0.67249846458 -0.30901703238
          -0.87866169214 0.36395350099 -0.30901703238 -0.95105648041 -8.3144001906e-08 -0.30901703238
          -0.91881835461 -0.38058713078 -0.10452850908 -0.87866157293 -0.36395365 -0.30901703238
          -0.70323312283 -0.70323324203 -0.10452850908 -0.38058695197 -0.91881847382 -0.10452850908
          1.3041579905e-07 -0.99452191591 -0.10452850908 0.38058719039 -0.91881835461 -0.10452850908
          0.70323330164 -0.70323306322 -0.10452850908 0.87866169214 -0.36395341158 -0.30901703238
          0.86602538824 0 -0.5000000596 0.80010312796 0.33141356707 -0.5000000596
          0.61237239838 0.61237245798 -0.5000000596 0.33141353726 0.80010312796 -0.5000000596
          -3.7855173218e-08 0.86602538824 -0.5000000596 -0.33141359687 0.80010312796 -0.5000000596
          -0.61237245798 0.61237239838 -0.5000000596 -0.80010312796 0.33141350746 -0.5000000596
          -0.86602538824 -7.5710346437e-08 -0.5000000596 -0.80010306835 -0.33141365647 -0.5000000596
          -0.67249840498 -0.67249858379 -0.30901703238 -0.61237233877 -0.61237245798 -0.5000000596
          -0.36395347118 -0.87866169214 -0.30901703238 1.2471600996e-07 -0.95105648041 -0.30901703238
          0.3639536798 -0.87866157293 -0.30901703238 0.67249858379 -0.67249840498 -0.30901703238
          0.80010318756 -0.33141341805 -0.5000000596 0.7431448102 0 -0.66913068295
          0.68657624722 0.28438919783 -0.66913068295 0.52548271418 0.52548271418 -0.66913068295
          0.28438916802 0.68657624722 -0.66913068295 -3.2483892909e-08 0.7431448102 -0.66913068295
          -0.28438922763 0.68657624722 -0.66913068295 -0.52548277378 0.52548265457 -0.66913068295
          -0.68657624722 0.28438913822 -0.66913068295 -0.7431448102 -6.4967785818e-08 -0.66913068295
          -0.68657624722 -0.28438925743 -0.66913068295 -0.52548265457 -0.52548277378 -0.66913068295
          -0.33141347766 -0.80010318756 -0.5000000596 -0.28438910842 -0.68657630682 -0.66913068295
          1.1356551965e-07 -0.86602538824 -0.5000000596 0.33141368628 -0.80010306835 -0.5000000596
          0.61237251759 -0.61237233877 -0.5000000596 0.68657630682 -0.28438907862 -0.66913068295
          0.58778518438 0 -0.80901706219 0.54304271936 0.22493566573 -0.80901706219
          0.41562688351 0.41562691331 -0.80901706219 0.22493563592 0.54304271936 -0.80901706219
          -2.5692907357e-08 0.58778518438 -0.80901706219 -0.22493568063 0.54304271936 -0.80901706219
          -0.41562691331 0.41562688351 -0.80901706219 -0.54304271936 0.22493562102 -0.80901706219
          -0.58778518438 -5.1385814714e-08 -0.80901706219 -0.54304271936 -0.22493571043 -0.80901706219
          -0.4156268537 -0.41562694311 -0.80901706219 -0.22493559122 -0.54304271936 -0.80901706219
          9.7451675174e-08 -0.7431448102 -0.66913068295 7.7078723848e-08 -0.58778518438 -0.80901706219
          0.28438928723 -0.68657618761 -0.66913068295 0.52548277378 -0.52548265457 -0.66913068295
          0.54304271936 -0.22493556142 -0.80901706219 0.40673658252 0 -0.91354548931
          0.37577560544 0.15565134585 -0.91354548931 0.28760617971 0.28760620952 -0.91354548931
          0.15565133095 0.37577560544 -0.91354548931 -1.7779020922e-08 0.40673658252 -0.91354548931
          -0.15565137565 0.37577557564 -0.91354548931 -0.28760620952 0.28760617971 -0.91354548931
          -0.37577560544 0.15565131605 -0.91354548931 -0.40673658252 -3.5558041844e-08 -0.91354548931
          -0.37577557564 -0.15565139055 -0.91354548931 -0.28760614991 -0.28760620952 -0.91354548931
          -0.15565130115 -0.37577560544 -0.91354548931 5.3337064543e-08 -0.40673658252 -0.91354548931
          0.22493574023 -0.54304265976 -0.80901706219 0.15565140545 -0.37577557564 -0.91354548931
          0.41562697291 -0.4156268239 -0.80901706219 0.37577563524 -0.15565128624 -0.91354548931
          0.2079116106 0 -0.97814762592 0.19208528101 0.079564332962 -0.97814762592
          0.1470157057 0.14701572061 -0.97814762592 0.079564325511 0.19208528101 -0.97814762592
          -9.0881053794e-09 0.2079116106 -0.97814762592 -0.079564340413 0.19208528101 -0.97814762592
          -0.14701572061 0.1470157057 -0.97814762592 -0.19208528101 0.07956431061 -0.97814762592
          -0.2079116106 -1.8176210759e-08 -0.97814762592 -0.19208528101 -0.079564347863 -0.97814762592
          -0.1470156908 -0.14701572061 -0.97814762592 -0.07956430316 -0.19208529592 -0.97814762592
          2.7264317026e-08 -0.2079116106 -0.97814762592 0.079564355314 -0.19208526611 -0.97814762592
          0.28760623932 -0.28760614991 -0.91354548931 0.14701573551 -0.1470156908 -0.97814762592
          0.19208529592 -0.079564295709 -0.97814762592 0 0 -1
        </DataArray>
        <DataArray type="Int32" Name="RegionId" format="ascii" RangeMin="0" RangeMax="0">
          0 0 0 0 0 0
          0 0 0 0 0 0
          0 0 0 0 0 0
          0 0 0 0 0 0
          0 0 0 0 0 0
          0 0 0 0 0 0
          0 0 0 0 0 0
          0 0 0 0 0 0
          0 0 0 0 0 0
          0 0 0 0 0 0
          0 0 0 0 0 0
          0 0 0 0 0 0
          0 0 0 0 0 0
          0 0 0 0 0 0
          0 0 0 0 0 0
          0 0 0 0 0 0
          0 0 0 0 0 0
          0 0 0 0 0 0
          0 0 0 0 0 0
          0 0 0 0 0 0
          0 0 0 0 0 0
          0 0 0 0 0 0
          0 0 0 0 0 0
          0 0 0 0 0 0
          0 0 0 0 0 0
          0 0 0 0 0 0
          0 0 0 0 0 0
          0 0 0 0 0 0
          0 0 0 0 0 0
          0 0 0 0 0 0
          0 0 0 0 0 0
          0 0 0 0 0 0
          0 0 0 0 0 0
          0 0 0 0 0 0
          0 0 0 0 0 0
          0 0 0 0 0 0
          0 0 0 0 0 0
          0 0 0 0
        </DataArray>
      </PointData>
      <CellData Scalars="RegionId">
        <DataArray type="Int32" Name="RegionId" format="ascii" RangeMin="0" RangeMax="0">
          0 0 0 0 0 0
          0 0 0 0 0 0
          0 0 0 0 0 0
          0 0 0 0 0 0
          0 0 0 0 0 0
          0 0 0 0 0 0
          0 0 0 0 0 0
          0 0 0 0 0 0
          0 0 0 0 0 0
          0 0 0 0 0 0
          0 0 0 0 0 0
          0 0 0 0 0 0
          0 0 0 0 0 0
          0 0 0 0 0 0
          0 0 0 0 0 0
          0 0 0 0 0 0
          0 0 0 0 0 0
          0 0 0 0 0 0
          0 0 0 0 0 0
          0 0 0 0 0 0
          0 0 0 0 0 0
          0 0 0 0 0 0
          0 0 0 0 0 0
          0 0 0 0 0 0
          0 0 0 0 0 0
          0 0 0 0 0 0
          0 0 0 0 0 0
          0 0 0 0 0 0
          0 0 0 0 0 0
          0 0 0 0 0 0
          0 0 0 0 0 0
          0 0 0 0 0 0
          0 0 0 0 0 0
          0 0 0 0 0 0
          0 0 0 0 0 0
          0 0 0 0 0 0
          0 0 0 0 0 0
          0 0 0 0 0 0
          0 0 0 0 0 0
          0 0 0 0 0 0
          0 0 0 0 0 0
          0 0 0 0 0 0
          0 0 0 0 0 0
          0 0 0 0 0 0
          0 0 0 0 0 0
          0 0 0 0 0 0
          0 0 0 0 0 0
          0 0 0 0 0 0
          0 0 0 0 0 0
          0 0 0 0 0 0
          0 0 0 0 0 0
          0 0 0 0 0 0
          0 0 0 0 0 0
          0 0 0 0 0 0
          0 0 0 0 0 0
          0 0 0 0 0 0
          0 0 0 0 0 0
          0 0 0 0 0 0
          0 0 0 0 0 0
          0 0 0 0 0 0
          0 0 0 0 0 0
          0 0 0 0 0 0
          0 0 0 0 0 0
          0 0 0 0 0 0
          0 0 0 0 0 0
          0 0 0 0 0 0
          0 0 0 0 0 0
          0 0 0 0 0 0
          0 0 0 0 0 0
          0 0 0 0 0 0
          0 0 0 0 0 0
          0 0 0 0 0 0
          0 0 0 0 0 0
          0 0 0 0 0 0
          0 0 0 0
        </DataArray>
      </CellData>
      <Points>
        <DataArray type="Float32" Name="Points" NumberOfComponents="3" format="ascii" RangeMin="0.99999996765" RangeMax="1.0000000399">
          0.20791170001 0 0.97814762592 0.19208535552 0.079564362764 0.97814762592
          0 0 1 0.19208537042 -0.079564332962 0.97814762592
          0.40673664212 0 0.91354542971 0.37577566504 0.15565137565 0.91354542971
          0.14701576531 0.14701578021 0.97814762592 0.28760623932 0.28760623932 0.91354542971
          0.079564355314 0.19208537042 0.97814762592 -9.0881089321e-09 0.20791170001 0.97814762592
          -0.079564370215 0.19208535552 0.97814762592 -0.14701578021 0.14701576531 0.97814762592
          -0.19208537042 0.079564347863 0.97814762592 -0.20791170001 -1.8176217864e-08 0.97814762592
          -0.19208535552 -0.079564377666 0.97814762592 -0.14701575041 -0.14701578021 0.97814762592
          -0.079564340413 -0.19208537042 0.97814762592 2.7264327684e-08 -0.20791170001 0.97814762592
          0.079564392567 -0.19208535552 0.97814762592 0.14701579511 -0.14701575041 0.97814762592
          0.37577569485 -0.15565131605 0.91354542971 0.58778524399 0 0.80901700258
          0.54304277897 0.22493569553 0.80901700258 0.41562694311 0.41562694311 0.80901700258
          0.15565136075 0.37577566504 0.91354542971 0.22493566573 0.54304277897 0.80901700258
          -1.7779024475e-08 0.40673664212 0.91354542971 -0.15565140545 0.37577566504 0.91354542971
          -0.28760626912 0.28760623932 0.91354542971 -0.37577569485 0.15565134585 0.91354542971
          -0.40673664212 -3.555804895e-08 0.91354542971 -0.37577566504 -0.15565142035 0.91354542971
          -0.28760620952 -0.28760626912 0.91354542971 -0.15565133095 -0.37577569485 0.91354542971
          5.3337075201e-08 -0.40673664212 0.91354542971 0.15565143526 -0.37577563524 0.91354542971
          0.28760629892 -0.28760620952 0.91354542971 0.54304283857 -0.22493559122 0.80901700258
          0.7431448698 0 0.66913056374 0.68657630682 0.28438922763 0.66913056374
          0.52548277378 0.52548277378 0.66913056374 0.28438919783 0.68657630682 0.66913056374
          -2.569291091e-08 0.58778524399 0.80901700258 -3.2483892909e-08 0.7431448698 0.66913056374
          -0.22493571043 0.54304277897 0.80901700258 -0.41562697291 0.41562691331 0.80901700258
          -0.54304277897 0.22493563592 0.80901700258 -0.58778524399 -5.138582182e-08 0.80901700258
          -0.54304277897 -0.22493574023 0.80901700258 -0.41562691331 -0.41562700272 0.80901700258
          -0.22493562102 -0.54304277897 0.80901700258 7.7078730953e-08 -0.58778524399 0.80901700258
          0.22493575513 -0.54304271936 0.80901700258 0.41562700272 -0.41562688351 0.80901700258
          0.68657636642 -0.28438910842 0.66913056374 0.86602544785 0 0.4999999702
          0.80010312796 0.33141359687 0.4999999702 0.61237245798 0.61237245798 0.4999999702
          0.33141356707 0.80010318756 0.4999999702 -3.7855173218e-08 0.86602544785 0.4999999702
          -0.28438925743 0.68657630682 0.66913056374 -0.33141362667 0.80010312796 0.4999999702
          -0.52548277378 0.52548271418 0.66913056374 -0.68657630682 0.28438916802 0.66913056374
          -0.7431448698 -6.4967785818e-08 0.66913056374 -0.68657630682 -0.28438928723 0.66913056374
          -0.52548271418 -0.52548283339 0.66913056374 -0.28438913822 -0.68657636642 0.66913056374
          9.7451682279e-08 -0.7431448698 0.66913056374 0.28438931704 -0.68657624722 0.66913056374
          0.52548283339 -0.52548265457 0.66913056374 0.80010318756 -0.33141344786 0.4999999702
          0.95105654001 0 0.30901697278 0.87866163254 0.36395359039 0.30901697278
          0.67249852419 0.67249852419 0.30901697278 0.36395356059 0.87866169214 0.30901697278
          -4.1572004505e-08 0.95105654001 0.30901697278 -0.3639536202 0.87866163254 0.30901697278
          -0.61237245798 0.61237239838 0.4999999702 -0.67249858379 0.67249846458 0.30901697278
          -0.80010318756 0.33141350746 0.4999999702 -0.86602544785 -7.5710346437e-08 0.4999999702
          -0.80010312796 -0.33141365647 0.4999999702 -0.61237239838 -0.61237251759 0.4999999702
          -0.33141347766 -0.80010318756 0.4999999702 1.1356552676e-07 -0.86602544785 0.4999999702
          0.33141368628 -0.80010312796 0.4999999702 0.61237251759 -0.61237233877 0.4999999702
          0.87866169214 -0.36395344138 0.30901697278 0.99452191591 0 0.10452841967
          0.91881841421 0.38058707118 0.10452841967 0.70323318243 0.70323318243 0.10452841967
          0.38058701158 0.91881841421 0.10452841967 -4.3471935385e-08 0.99452191591 0.10452841967
          -0.38058710098 0.91881841421 0.10452841967 -0.70323324203 0.70323312283 0.10452841967
          -0.87866169214 0.36395350099 0.30901697278 -0.91881847382 0.38058698177 0.10452841967
          -0.95105654001 -8.3144009011e-08 0.30901697278 -0.87866163254 -0.36395365 0.30901697278
          -0.67249846458 -0.67249858379 0.30901697278 -0.36395347118 -0.87866169214 0.30901697278
          1.2471600996e-07 -0.95105654001 0.30901697278 0.3639537096 -0.87866163254 0.30901697278
          0.6724986434 -0.67249840498 0.30901697278 0.91881847382 -0.38058689237 0.10452841967
          0.99452191591 0 -0.10452850908 0.91881841421 0.38058707118 -0.10452850908
          0.70323318243 0.70323318243 -0.10452850908 0.38058701158 0.91881841421 -0.10452850908
          -4.3471935385e-08 0.99452191591 -0.10452850908 -0.38058710098 0.91881841421 -0.10452850908
          -0.70323324203 0.70323312283 -0.10452850908 -0.91881847382 0.38058698177 -0.10452850908
          -0.99452191591 -8.694387077e-08 0.10452841967 -0.99452191591 -8.694387077e-08 -0.10452850908
          -0.91881841421 -0.38058713078 0.10452841967 -0.70323312283 -0.70323324203 0.10452841967
          -0.38058695197 -0.91881847382 0.10452841967 1.3041579905e-07 -0.99452191591 0.10452841967
          0.38058719039 -0.91881835461 0.10452841967 0.70323330164 -0.70323306322 0.10452841967
          0.91881847382 -0.38058689237 -0.10452850908 0.95105648041 0 -0.30901703238
          0.87866163254 0.36395356059 -0.30901703238 0.67249846458 0.67249852419 -0.30901703238
          0.36395353079 0.87866163254 -0.30901703238 -4.1572000953e-08 0.95105648041 -0.30901703238
          -0.3639536202 0.87866163254 -0.30901703238 -0.67249852419 0.67249846458 -0.30901703238
          -0.87866169214 0.36395350099 -0.30901703238 -0.95105648041 -8.3144001906e-08 -0.30901703238
          -0.91881835461 -0.38058713078 -0.10452850908 -0.87866157293 -0.36395365 -0.30901703238
          -0.70323312283 -0.70323324203 -0.10452850908 -0.38058695197 -0.91881847382 -0.10452850908
          1.3041579905e-07 -0.99452191591 -0.10452850908 0.38058719039 -0.91881835461 -0.10452850908
          0.70323330164 -0.70323306322 -0.10452850908 0.87866169214 -0.36395341158 -0.30901703238
          0.86602538824 0 -0.5000000596 0.80010312796 0.33141356707 -0.5000000596
          0.61237239838 0.61237245798 -0.5000000596 0.33141353726 0.80010312796 -0.5000000596
          -3.7855173218e-08 0.86602538824 -0.5000000596 -0.33141359687 0.80010312796 -0.5000000596
          -0.61237245798 0.61237239838 -0.5000000596 -0.80010312796 0.33141350746 -0.5000000596
          -0.86602538824 -7.5710346437e-08 -0.5000000596 -0.80010306835 -0.33141365647 -0.5000000596
          -0.67249840498 -0.67249858379 -0.30901703238 -0.61237233877 -0.61237245798 -0.5000000596
          -0.36395347118 -0.87866169214 -0.30901703238 1.2471600996e-07 -0.95105648041 -0.30901703238
          0.3639536798 -0.87866157293 -0.30901703238 0.67249858379 -0.67249840498 -0.30901703238
          0.80010318756 -0.33141341805 -0.5000000596 0.7431448102 0 -0.66913068295
          0.68657624722 0.28438919783 -0.66913068295 0.52548271418 0.52548271418 -0.66913068295
          0.28438916802 0.68657624722 -0.66913068295 -3.2483892909e-08 0.7431448102 -0.66913068295
          -0.28438922763 0.68657624722 -0.66913068295 -0.52548277378 0.52548265457 -0.66913068295
          -0.68657624722 0.28438913822 -0.66913068295 -0.7431448102 -6.4967785818e-08 -0.66913068295
          -0.68657624722 -0.28438925743 -0.66913068295 -0.52548265457 -0.52548277378 -0.66913068295
          -0.33141347766 -0.80010318756 -0.5000000596 -0.28438910842 -0.68657630682 -0.66913068295
          1.1356551965e-07 -0.86602538824 -0.5000000596 0.33141368628 -0.80010306835 -0.5000000596
          0.61237251759 -0.61237233877 -0.5000000596 0.68657630682 -0.28438907862 -0.66913068295
          0.58778518438 0 -0.80901706219 0.54304271936 0.22493566573 -0.80901706219
          0.41562688351 0.41562691331 -0.80901706219 0.22493563592 0.54304271936 -0.80901706219
          -2.5692907357e-08 0.58778518438 -0.80901706219 -0.22493568063 0.54304271936 -0.80901706219
          -0.41562691331 0.41562688351 -0.80901706219 -0.54304271936 0.22493562102 -0.80901706219
          -0.58778518438 -5.1385814714e-08 -0.80901706219 -0.54304271936 -0.22493571043 -0.80901706219
          -0.4156268537 -0.41562694311 -0.80901706219 -0.22493559122 -0.54304271936 -0.80901706219
          9.7451675174e-08 -0.7431448102 -0.66913068295 7.7078723848e-08 -0.58778518438 -0.80901706219
          0.28438928723 -0.68657618761 -0.66913068295 0.52548277378 -0.52548265457 -0.66913068295
          0.54304271936 -0.22493556142 -0.80901706219 0.40673658252 0 -0.91354548931
          0.37577560544 0.15565134585 -0.91354548931 0.28760617971 0.28760620952 -0.91354548931
          0.15565133095 0.37577560544 -0.91354548931 -1.7779020922e-08 0.40673658252 -0.91354548931
          -0.15565137565 0.37577557564 -0.91354548931 -0.28760620952 0.28760617971 -0.91354548931
          -0.37577560544 0.15565131605 -0.91354548931 -0.40673658252 -3.5558041844e-08 -0.91354548931
          -0.37577557564 -0.15565139055 -0.91354548931 -0.28760614991 -0.28760620952 -0.91354548931
          -0.15565130115 -0.37577560544 -0.91354548931 5.3337064543e-08 -0.40673658252 -0.91354548931
          0.22493574023 -0.54304265976 -0.80901706219 0.15565140545 -0.37577557564 -0.91354548931
          0.41562697291 -0.4156268239 -0.80901706219 0.37577563524 -0.15565128624 -0.91354548931
          0.2079116106 0 -0.97814762592 0.19208528101 0.079564332962 -0.97814762592
          0.1470157057 0.14701572061 -0.97814762592 0.079564325511 0.19208528101 -0.97814762592
          -9.0881053794e-09 0.2079116106 -0.97814762592 -0.079564340413 0.19208528101 -0.97814762592
          -0.14701572061 0.1470157057 -0.97814762592 -0.19208528101 0.07956431061 -0.97814762592
          -0.2079116106 -1.8176210759e-08 -0.97814762592 -0.19208528101 -0.079564347863 -0.97814762592
          -0.1470156908 -0.14701572061 -0.97814762592 -0.07956430316 -0.19208529592 -0.97814762592
          2.7264317026e-08 -0.2079116106 -0.97814762592 0.079564355314 -0.19208526611 -0.97814762592
          0.28760623932 -0.28760614991 -0.91354548931 0.14701573551 -0.1470156908 -0.97814762592
          0.19208529592 -0.079564295709 -0.97814762592 0 0 -1
        </DataArray>
      </Points>
      <Cells>
        <DataArray type="Int32" Name="connectivity" format="ascii" RangeMin="0" RangeMax="225">
          0 1 2 1 6 2
          6 8 2 8 9 2
          9 10 2 10 11 2
          11 12 2 12 13 2
          13 14 2 14 15 2
          15 16 2 16 17 2
          17 18 2 18 19 2
          19 3 2 3 0 2
          208 225 209 209 225 210
          210 225 211 211 225 212
          212 225 213 213 225 214
          214 225 215 215 225 216
          216 225 217 217 225 218
          218 225 219 219 225 220
          220 225 221 221 225 223
          223 225 224 224 225 208
          0 4 5 0 5 1
          4 21 22 4 22 5
          21 38 39 21 39 22
          38 55 56 38 56 39
          55 72 73 55 73 56
          72 89 90 72 90 73
          89 106 107 89 107 90
          106 123 124 106 124 107
          123 140 141 123 141 124
          140 157 158 140 158 141
          157 174 175 157 175 158
          174 191 192 174 192 175
          191 208 209 191 209 192
          1 5 7 1 7 6
          5 22 23 5 23 7
          22 39 40 22 40 23
          39 56 57 39 57 40
          56 73 74 56 74 57
          73 90 91 73 91 74
          90 107 108 90 108 91
          107 124 125 107 125 108
          124 141 142 124 142 125
          141 158 159 141 159 142
          158 175 176 158 176 159
          175 192 193 175 193 176
          192 209 210 192 210 193
          6 7 24 6 24 8
          7 23 25 7 25 24
          23 40 41 23 41 25
          40 57 58 40 58 41
          57 74 75 57 75 58
          74 91 92 74 92 75
          91 108 109 91 109 92
          108 125 126 108 126 109
          125 142 143 125 143 126
          142 159 160 142 160 143
          159 176 177 159 177 160
          176 193 194 176 194 177
          193 210 211 193 211 194
          8 24 26 8 26 9
          24 25 42 24 42 26
          25 41 43 25 43 42
          41 58 59 41 59 43
          58 75 76 58 76 59
          75 92 93 75 93 76
          92 109 110 92 110 93
          109 126 127 109 127 110
          126 143 144 126 144 127
          143 160 161 143 161 144
          160 177 178 160 178 161
          177 194 195 177 195 178
          194 211 212 194 212 195
          9 26 27 9 27 10
          26 42 44 26 44 27
          42 43 60 42 60 44
          43 59 61 43 61 60
          59 76 77 59 77 61
          76 93 94 76 94 77
          93 110 111 93 111 94
          110 127 128 110 128 111
          127 144 145 127 145 128
          144 161 162 144 162 145
          161 178 179 161 179 162
          178 195 196 178 196 179
          195 212 213 195 213 196
          10 27 28 10 28 11
          27 44 45 27 45 28
          44 60 62 44 62 45
          60 61 78 60 78 62
          61 77 79 61 79 78
          77 94 95 77 95 79
          94 111 112 94 112 95
          111 128 129 111 129 112
          128 145 146 128 146 129
          145 162 163 145 163 146
          162 179 180 162 180 163
          179 196 197 179 197 180
          196 213 214 196 214 197
          11 28 29 11 29 12
          28 45 46 28 46 29
          45 62 63 45 63 46
          62 78 80 62 80 63
          78 79 96 78 96 80
          79 95 97 79 97 96
          95 112 113 95 113 97
          112 129 130 112 130 113
          129 146 147 129 147 130
          146 163 164 146 164 147
          163 180 181 163 181 164
          180 197 198 180 198 181
          197 214 215 197 215 198
          12 29 30 12 30 13
          29 46 47 29 47 30
          46 63 64 46 64 47
          63 80 81 63 81 64
          80 96 98 80 98 81
          96 97 114 96 114 98
          97 113 115 97 115 114
          113 130 131 113 131 115
          130 147 148 130 148 131
          147 164 165 147 165 148
          164 181 182 164 182 165
          181 198 199 181 199 182
          198 215 216 198 216 199
          13 30 31 13 31 14
          30 47 48 30 48 31
          47 64 65 47 65 48
          64 81 82 64 82 65
          81 98 99 81 99 82
          98 114 116 98 116 99
          114 115 132 114 132 116
          115 131 133 115 133 132
          131 148 149 131 149 133
          148 165 166 148 166 149
          165 182 183 165 183 166
          182 199 200 182 200 183
          199 216 217 199 217 200
          14 31 32 14 32 15
          31 48 49 31 49 32
          48 65 66 48 66 49
          65 82 83 65 83 66
          82 99 100 82 100 83
          99 116 117 99 117 100
          116 132 134 116 134 117
          132 133 150 132 150 134
          133 149 151 133 151 150
          149 166 167 149 167 151
          166 183 184 166 184 167
          183 200 201 183 201 184
          200 217 218 200 218 201
          15 32 33 15 33 16
          32 49 50 32 50 33
          49 66 67 49 67 50
          66 83 84 66 84 67
          83 100 101 83 101 84
          100 117 118 100 118 101
          117 134 135 117 135 118
          134 150 152 134 152 135
          150 151 168 150 168 152
          151 167 169 151 169 168
          167 184 185 167 185 169
          184 201 202 184 202 185
          201 218 219 201 219 202
          16 33 34 16 34 17
          33 50 51 33 51 34