<VTKFile type="UnstructuredGrid" version="0.1" byte_order="LittleEndian">
  <UnstructuredGrid>
    <Piece NumberOfPoints="122" NumberOfCells="240">
      <PointData Scalars="RegionId" Normals="Normals">
        <DataArray type="Float32" Name="Normals" NumberOfComponents="3" format="ascii" RangeMin="0.99999997726" RangeMax="1.0000000356">
          0.2817325592 0 0.95949298143 0.24398756027 0.1408662796 0.95949298143
          0 0 1 0.24398757517 -0.1408662498 0.95949298143
          0.54064083099 0 0.84125351906 0.46820870042 0.2703204155 0.84125351906
          0.1408662796 0.24398756027 0.95949298143 0.2703204155 0.46820870042 0.84125351906
          -1.2314922415e-08 0.2817325592 0.95949298143 -0.1408662945 0.24398754537 0.95949298143
          -0.24398757517 0.1408662647 0.95949298143 -0.2817325592 -2.462984483e-08 0.95949298143
          -0.24398754537 -0.1408663094 0.95949298143 -0.1408662498 -0.24398757517 0.95949298143
          3.6944765469e-08 -0.2817325592 0.95949298143 0.14086632431 -0.24398753047 0.95949298143
          0.46820873022 -0.27032032609 0.84125351906 0.75574958324 0 0.65486073494
          0.6544983387 0.37787479162 0.65486073494 0.37787476182 0.6544983387 0.65486073494
          -2.3632162893e-08 0.54064083099 0.84125351906 -3.303486551e-08 0.75574958324 0.65486073494
          -0.2703204453 0.46820867062 0.84125351906 -0.46820870042 0.27032038569 0.84125351906
          -0.54064083099 -4.7264325787e-08 0.84125351906 -0.46820867062 -0.2703204751 0.84125351906
          -0.27032035589 -0.46820873022 0.84125351906 7.0896483351e-08 -0.54064083099 0.84125351906
          0.2703204751 -0.46820864081 0.84125351906 0.6544983983 -0.37787470222 0.65486073494
          0.90963202715 0 0.41541498899 0.78776443005 0.45481601357 0.41541498899
          0.45481598377 0.78776443005 0.41541498899 -3.9761278714e-08 0.90963202715 0.41541498899
          -0.37787482142 0.6544983387 0.65486073494 -0.45481604338 0.78776443005 0.41541498899
          -0.6544983983 0.37787476182 0.65486073494 -0.75574958324 -6.606973102e-08 0.65486073494
          -0.65449827909 -0.37787485123 0.65486073494 -0.37787473202 -0.6544983983 0.65486073494
          9.9104596529e-08 -0.75574958324 0.65486073494 0.37787488103 -0.65449827909 0.65486073494
          0.78776448965 -0.45481586456 0.41541498899 0.98982143402 0 0.14231479168
          0.85721051693 0.49491074681 0.14231479168 0.49491068721 0.85721051693 0.14231479168
          -4.3266471295e-08 0.98982143402 0.14231479168 -0.49491077662 0.85721051693 0.14231479168
          -0.78776448965 0.45481595397 0.41541498899 -0.85721057653 0.49491065741 0.14231479168
          -0.90963202715 -7.9522557428e-08 0.41541498899 -0.78776437044 -0.45481607318 0.41541498899
          -0.45481592417 -0.78776448965 0.41541498899 1.1928383969e-07 -0.90963202715 0.41541498899
          0.45481613278 -0.78776437044 0.41541498899 0.85721057653 -0.4949105978 0.14231479168
          0.98982143402 0 -0.14231488109 0.85721051693 0.49491071701 -0.14231488109
          0.49491068721 0.85721051693 -0.14231488109 -4.3266471295e-08 0.98982143402 -0.14231488109
          -0.49491077662 0.85721045732 -0.14231488109 -0.85721051693 0.49491065741 -0.14231488109
          -0.98982143402 -8.6532942589e-08 0.14231479168 -0.98982143402 -8.6532942589e-08 -0.14231488109
          -0.85721045732 -0.49491080642 0.14231479168 -0.4949106276 -0.85721057653 0.14231479168
          1.2979941744e-07 -0.98982143402 0.14231479168 0.49491083622 -0.85721045732 0.14231479168
          0.85721057653 -0.494910568 -0.14231488109 0.90963196754 0 -0.4154150784
          0.78776437044 0.45481598377 -0.4154150784 0.45481595397 0.78776443005 -0.4154150784
          -3.9761278714e-08 0.90963196754 -0.4154150784 -0.45481604338 0.78776437044 -0.4154150784
          -0.78776443005 0.45481592417 -0.4154150784 -0.90963196754 -7.9522557428e-08 -0.4154150784
          -0.85721045732 -0.49491080642 -0.14231488109 -0.78776437044 -0.45481607318 -0.4154150784
          -0.4949106276 -0.85721057653 -0.14231488109 1.2979941744e-07 -0.98982143402 -0.14231488109
          0.49491083622 -0.85721045732 -0.14231488109 0.78776448965 -0.45481586456 -0.4154150784
          0.75574952364 0 -0.65486079454 0.65449827909 0.37787476182 -0.65486079454
          0.37787476182 0.65449827909 -0.65486079454 -3.3034861957e-08 0.75574952364 -0.65486079454
          -0.37787479162 0.65449827909 -0.65486079454 -0.6544983387 0.37787473202 -0.65486079454
          -0.75574952364 -6.6069723914e-08 -0.65486079454 -0.65449827909 -0.37787482142 -0.65486079454
          -0.45481589437 -0.78776443005 -0.4154150784 -0.37787470222 -0.6544983387 -0.65486079454
          1.1928383969e-07 -0.90963196754 -0.4154150784 0.45481610298 -0.78776431084 -0.4154150784
          0.6544983387 -0.37787467241 -0.65486079454 0.54064077139 0 -0.84125357866
          0.46820864081 0.27032038569 -0.84125357866 0.27032035589 0.46820864081 -0.84125357866
          -2.3632159341e-08 0.54064077139 -0.84125357866 -0.2703204155 0.46820861101 -0.84125357866
          -0.46820864081 0.27032035589 -0.84125357866 -0.54064077139 -4.7264318681e-08 -0.84125357866
          -0.46820861101 -0.2703204155 -0.84125357866 -0.27032032609 -0.46820867062 -0.84125357866
          9.9104589424e-08 -0.75574952364 -0.65486079454 7.0896476245e-08 -0.54064077139 -0.84125357866
          0.37787485123 -0.65449821949 -0.65486079454 0.46820867062 -0.27032029629 -0.84125357866
          0.2817324698 0 -0.95949298143 0.24398748577 0.1408662498 -0.95949298143
          0.1408662349 0.24398748577 -0.95949298143 -1.2314917974e-08 0.2817324698 -0.95949298143
          -0.1408662498 0.24398747087 -0.95949298143 -0.24398750067 0.14086622 -0.95949298143
          -0.2817324698 -2.4629835949e-08 -0.95949298143 -0.24398747087 -0.1408662647 -0.95949298143
          -0.1408662051 -0.24398750067 -0.95949298143 3.6944754811e-08 -0.2817324698 -0.95949298143
          0.2703204453 -0.46820858121 -0.84125357866 0.1408662796 -0.24398747087 -0.95949298143
          0.24398750067 -0.1408662051 -0.95949298143 0 0 -1
        </DataArray>
        <DataArray type="Int32" Name="RegionId" format="ascii" RangeMin="0" RangeMax="0">
          0 0 0 0 0 0
          0 0 0 0 0 0
          0 0 0 0 0 0
          0 0 0 0 0 0
          0 0 0 0 0 0
          0 0 0 0 0 0
          0 0 0 0 0 0
          0 0 0 0 0 0
          0 0 0 0 0 0
          0 0 0 0 0 0
          0 0 0 0 0 0
          0 0 0 0 0 0
          0 0 0 0 0 0
          0 0 0 0 0 0
          0 0 0 0 0 0
          0 0 0 0 0 0
          0 0 0 0 0 0
          0 0 0 0 0 0
          0 0 0 0 0 0
          0 0 0 0 0 0
          0 0
        </DataArray>
      </PointData>
      <CellData Scalars="RegionId">
        <DataArray type="Int32" Name="RegionId" format="ascii" RangeMin="0" RangeMax="0">
          0 0 0 0 0 0
          0 0 0 0 0 0
          0 0 0 0 0 0
          0 0 0 0 0 0
          0 0 0 0 0 0
          0 0 0 0 0 0
          0 0 0 0 0 0
          0 0 0 0 0 0
          0 0 0 0 0 0
          0 0 0 0 0 0
          0 0 0 0 0 0
          0 0 0 0 0 0
          0 0 0 0 0 0
          0 0 0 0 0 0
          0 0 0 0 0 0
          0 0 0 0 0 0
          0 0 0 0 0 0
          0 0 0 0 0 0
          0 0 0 0 0 0
          0 0 0 0 0 0
          0 0 0 0 0 0
          0 0 0 0 0 0
          0 0 0 0 0 0
          0 0 0 0 0 0
          0 0 0 0 0 0
          0 0 0 0 0 0
          0 0 0 0 0 0
          0 0 0 0 0 0
          0 0 0 0 0 0
          0 0 0 0 0 0
          0 0 0 0 0 0
          0 0 0 0 0 0
          0 0 0 0 0 0
          0 0 0 0 0 0
          0 0 0 0 0 0
          0 0 0 0 0 0
          0 0 0 0 0 0
          0 0 0 0 0 0
          0 0 0 0 0 0
          0 0 0 0 0 0
        </DataArray>
      </CellData>
      <Points>
        <DataArray type="Float32" Name="Points" NumberOfComponents="3" format="ascii" RangeMin="0.99999997726" RangeMax="1.0000000356">
          0.2817325592 0 0.95949298143 0.24398756027 0.1408662796 0.95949298143
          0 0 1 0.24398757517 -0.1408662498 0.95949298143
          0.54064083099 0 0.84125351906 0.46820870042 0.2703204155 0.84125351906
          0.1408662796 0.24398756027 0.95949298143 0.2703204155 0.46820870042 0.84125351906
          -1.2314922415e-08 0.2817325592 0.95949298143 -0.1408662945 0.24398754537 0.95949298143
          -0.24398757517 0.1408662647 0.95949298143 -0.2817325592 -2.462984483e-08 0.95949298143
          -0.24398754537 -0.1408663094 0.95949298143 -0.1408662498 -0.24398757517 0.95949298143
          3.6944765469e-08 -0.2817325592 0.95949298143 0.14086632431 -0.24398753047 0.95949298143
          0.46820873022 -0.27032032609 0.84125351906 0.75574958324 0 0.65486073494
          0.6544983387 0.37787479162 0.65486073494 0.37787476182 0.6544983387 0.65486073494
          -2.3632162893e-08 0.54064083099 0.84125351906 -3.303486551e-08 0.75574958324 0.65486073494
          -0.2703204453 0.46820867062 0.84125351906 -0.46820870042 0.27032038569 0.84125351906
          -0.54064083099 -4.7264325787e-08 0.84125351906 -0.46820867062 -0.2703204751 0.84125351906
          -0.27032035589 -0.46820873022 0.84125351906 7.0896483351e-08 -0.54064083099 0.84125351906
          0.2703204751 -0.46820864081 0.84125351906 0.6544983983 -0.37787470222 0.65486073494
          0.90963202715 0 0.41541498899 0.78776443005 0.45481601357 0.41541498899
          0.45481598377 0.78776443005 0.41541498899 -3.9761278714e-08 0.90963202715 0.41541498899
          -0.37787482142 0.6544983387 0.65486073494 -0.45481604338 0.78776443005 0.41541498899
          -0.6544983983 0.37787476182 0.65486073494 -0.75574958324 -6.606973102e-08 0.65486073494
          -0.65449827909 -0.37787485123 0.65486073494 -0.37787473202 -0.6544983983 0.65486073494
          9.9104596529e-08 -0.75574958324 0.65486073494 0.37787488103 -0.65449827909 0.65486073494
          0.78776448965 -0.45481586456 0.41541498899 0.98982143402 0 0.14231479168
          0.85721051693 0.49491074681 0.14231479168 0.49491068721 0.85721051693 0.14231479168
          -4.3266471295e-08 0.98982143402 0.14231479168 -0.49491077662 0.85721051693 0.14231479168
          -0.78776448965 0.45481595397 0.41541498899 -0.85721057653 0.49491065741 0.14231479168
          -0.90963202715 -7.9522557428e-08 0.41541498899 -0.78776437044 -0.45481607318 0.41541498899
          -0.45481592417 -0.78776448965 0.41541498899 1.1928383969e-07 -0.90963202715 0.41541498899
          0.45481613278 -0.78776437044 0.41541498899 0.85721057653 -0.4949105978 0.14231479168
          0.98982143402 0 -0.14231488109 0.85721051693 0.49491071701 -0.14231488109
          0.49491068721 0.85721051693 -0.14231488109 -4.3266471295e-08 0.98982143402 -0.14231488109
          -0.49491077662 0.85721045732 -0.14231488109 -0.85721051693 0.49491065741 -0.14231488109
          -0.98982143402 -8.6532942589e-08 0.14231479168 -0.98982143402 -8.6532942589e-08 -0.14231488109
          -0.85721045732 -0.49491080642 0.14231479168 -0.4949106276 -0.85721057653 0.14231479168
          1.2979941744e-07 -0.98982143402 0.14231479168 0.49491083622 -0.85721045732 0.14231479168
          0.85721057653 -0.494910568 -0.14231488109 0.90963196754 0 -0.4154150784
          0.78776437044 0.45481598377 -0.4154150784 0.45481595397 0.78776443005 -0.4154150784
          -3.9761278714e-08 0.90963196754 -0.4154150784 -0.45481604338 0.78776437044 -0.4154150784
          -0.78776443005 0.45481592417 -0.4154150784 -0.90963196754 -7.9522557428e-08 -0.4154150784
          -0.85721045732 -0.49491080642 -0.14231488109 -0.78776437044 -0.45481607318 -0.4154150784
          -0.4949106276 -0.85721057653 -0.14231488109 1.2979941744e-07 -0.98982143402 -0.14231488109
          0.49491083622 -0.85721045732 -0.14231488109 0.78776448965 -0.45481586456 -0.4154150784
          0.75574952364 0 -0.65486079454 0.65449827909 0.37787476182 -0.65486079454
          0.37787476182 0.65449827909 -0.65486079454 -3.3034861957e-08 0.75574952364 -0.65486079454
          -0.37787479162 0.65449827909 -0.65486079454 -0.6544983387 0.37787473202 -0.65486079454
          -0.75574952364 -6.6069723914e-08 -0.65486079454 -0.65449827909 -0.37787482142 -0.65486079454
          -0.45481589437 -0.78776443005 -0.4154150784 -0.37787470222 -0.6544983387 -0.65486079454
          1.1928383969e-07 -0.90963196754 -0.4154150784 0.45481610298 -0.78776431084 -0.4154150784
          0.6544983387 -0.37787467241 -0.65486079454 0.54064077139 0 -0.84125357866
          0.46820864081 0.27032038569 -0.84125357866 0.27032035589 0.46820864081 -0.84125357866
          -2.3632159341e-08 0.54064077139 -0.84125357866 -0.2703204155 0.46820861101 -0.84125357866
          -0.46820864081 0.27032035589 -0.84125357866 -0.54064077139 -4.7264318681e-08 -0.84125357866
          -0.46820861101 -0.2703204155 -0.84125357866 -0.27032032609 -0.46820867062 -0.84125357866
          9.9104589424e-08 -0.75574952364 -0.65486079454 7.0896476245e-08 -0.54064077139 -0.84125357866
          0.37787485123 -0.65449821949 -0.65486079454 0.46820867062 -0.27032029629 -0.84125357866
          0.2817324698 0 -0.95949298143 0.24398748577 0.1408662498 -0.95949298143
          0.1408662349 0.24398748577 -0.95949298143 -1.2314917974e-08 0.2817324698 -0.95949298143
          -0.1408662498 0.24398747087 -0.95949298143 -0.24398750067 0.14086622 -0.95949298143
          -0.2817324698 -2.4629835949e-08 -0.95949298143 -0.24398747087 -0.1408662647 -0.95949298143
          -0.1408662051 -0.24398750067 -0.95949298143 3.6944754811e-08 -0.2817324698 -0.95949298143
          0.2703204453 -0.46820858121 -0.84125357866 0.1408662796 -0.24398747087 -0.95949298143
          0.24398750067 -0.1408662051 -0.95949298143 0 0 -1
        </DataArray>
      </Points>
      <Cells>
        <DataArray type="Int32" Name="connectivity" format="ascii" RangeMin="0" RangeMax="121">
          0 1 2 1 6 2
          6 8 2 8 9 2
          9 10 2 10 11 2
          11 12 2 12 13 2
          13 14 2 14 15 2
          15 3 2 3 0 2
          108 121 109 109 121 110
          110 121 111 111 121 112
          112 121 113 113 121 114
          114 121 115 115 121 116
          116 121 117 117 121 119
          119 121 120 120 121 108
          0 4 5 0 5 1
          4 17 18 4 18 5
          17 30 31 17 31 18
          30 43 44 30 44 31
          43 56 57 43 57 44
          56 69 70 56 70 57
          69 82 83 69 83 70
          82 95 96 82 96 83
          95 108 109 95 109 96
          1 5 7 1 7 6
          5 18 19 5 19 7
          18 31 32 18 32 19
          31 44 45 31 45 32
          44 57 58 44 58 45
          57 70 71 57 71 58
          70 83 84 70 84 71
          83 96 97 83 97 84
          96 109 110 96 110 97
          6 7 20 6 20 8
          7 19 21 7 21 20
          19 32 33 19 33 21
          32 45 46 32 46 33
          45 58 59 45 59 46
          58 71 72 58 72 59
          71 84 85 71 85 72
          84 97 98 84 98 85
          97 110 111 97 111 98
          8 20 22 8 22 9
          20 21 34 20 34 22
          21 33 35 21 35 34
          33 46 47 33 47 35
          46 59 60 46 60 47
          59 72 73 59 73 60
          72 85 86 72 86 73
          85 98 99 85 99 86
          98 111 112 98 112 99
          9 22 23 9 23 10
          22 34 36 22 36 23
          34 35 48 34 48 36
          35 47 49 35 49 48
          47 60 61 47 61 49
          60 73 74 60 74 61
          73 86 87 73 87 74
          86 99 100 86 100 87
          99 112 113 99 113 100
          10 23 24 10 24 11
          23 36 37 23 37 24
          36 48 50 36 50 37
          48 49 62 48 62 50
          49 61 63 49 63 62
          61 74 75 61 75 63
          74 87 88 74 88 75
          87 100 101 87 101 88
          100 113 114 100 114 101
          11 24 25 11 25 12
          24 37 38 24 38 25
          37 50 51 37 51 38
          50 62 64 50 64 51
          62 63 76 62 76 64
          63 75 77 63 77 76
          75 88 89 75 89 77
          88 101 102 88 102 89
          101 114 115 101 115 102
          12 25 26 12 26 13
          25 38 39 25 39 26
          38 51 52 38 52 39
          51 64 65 51 65 52
          64 76 78 64 78 65
          76 77 90 76 90 78
          77 89 91 77 91 90
          89 102 103 89 103 91
          102 115 116 102 116 103
          13 26 27 13 27 14
          26 39 40 26 40 27
          39 52 53 39 53 40
          52 65 66 52 66 53
          65 78 79 65 79 66
          78 90 92 78 92 79
          90 91 104 90 104 92
          91 103 105 91 105 104
          103 116 117 103 117 105
          14 27 28 14 28 15
          27 40 41 27 41 28
          40 53 54 40 54 41
          53 66 67 53 67 54
          66 79 80 66 80 67
          79 92 93 79 93 80
          92 104 106 92 106 93
          104 105 118 104 118 106
          105 117 119 105 119 118
          15 28 16 15 16 3
          28 41 29 28 29 16
          41 54 42 41 42 29
          54 67 55 54 55 42
          67 80 68 67 68 55
          80 93 81 80 81 68
          93 106 94 93 94 81
          106 118 107 106 107 94
          118 119 120 118 120 107
          3 16 4 3 4 0
          16 29 17 16 17 4
          29 42 30 29 30 17
          42 55 43 42 43 30
          55 68 56 55 56 43
          68 81 69 68 69 56
          81 94 82 81 82 69
          94 107 95 94 95 82
          107 120 108 107 108 95
        </DataArray>
        <DataArray type="Int32" Name="offsets" format="ascii" RangeMin="3" RangeMax="720">
          3 6 9 12 15 18
          21 24 27 30 33 36
          39 42 45 48 51 54
          57 60 63 66 69 72
          75 78 81 84 87 90
          93 96 99 102 105 108
          111 114 117 120 123 126
          129 132 135 138 141 144
          147 150 153 156 159 162
          165 168 171 174 177 180
          183 186 189 192 195 198
          201 204 207 210 213 216
          219 222 225 228 231 234
          237 240 243 246 249 252
          255 258 261 264 267 270
          273 276 279 282 285 288
          291 294 297 300 303 306
          309 312 315 318 321 324
          327 330 333 336 339 342
          345 348 351 354 357 360
          363 366 369 372 375 378
          381 384 387 390 393 396
          399 402 405 408 411 414
          417 420 423 426 429 432
          435 438 441 444 447 450
          453 456 459 462 465 468
          471 474 477 480 483 486
          489 492 495 498 501 504
          507 510 513 516 519 522
          525 528 531 534 537 540
          543 546 549 552 555 558
          561 564 567 570 573 576
          579 582 585 588 591 594
          597 600 603 606 609 612
          615 618 621 624 627 630
          633 636 639 642 645 648
          651 654 657 660 663 666
          669 672 675 678 681 684
          687 690 693 696 699 702
          705 708 711 714 717 720
        </DataArray>
        <DataArray type="UInt8" Name="types" format="ascii" RangeMin="5" RangeMax="5">
          5 5 5 5 5 5
          5 5 5 5 5 5
          5 5 5 5 5 5
          5 5 5 5 5 5
          5 5 5 5 5 5
          5 5 5 5 5 5
          5 5 5 5 5 5
          5 5 5 5 5 5
          5 5 5 5 5 5
          5 5 5 5 5 5
          5 5 5 5 5 5
          5 5 5 5 5 5
          5 5 5 5 5 5
          5 5 5 5 5 5
          5 5 5 5 5 5
          5 5 5 5 5 5
          5 5 5 5 5 5
          5 5 5 5 5 5
          5 5 5 5 5 5
          5 5 5 5 5 5
          5 5 5 5 5 5
          5 5 5 5 5 5
          5 5 5 5 5 5
          5 5 5 5 5 5
          5 5 5 5 5 5
          5 5 5 5 5 5
          5 5 5 5 5 5
          5 5 5 5 5 5
          5 5 5 5 5 5
          5 5 5 5 5 5
          5 5 5 5 5 5
          5 5 5 5 5 5
          5 5 5 5 5 5
          5 5 5 5 5 5
          5 5 5 5 5 5
          5 5 5 5 5 5
          5 5 5 5 5 5
          5 5 5 5 5 5
          5 5 5 5 5 5
          5 5 5 5 5 5
        </DataArray>
      </Cells>
    </Piece>
  </UnstructuredGrid>
</VTKFile>
