<?xml version="1.0"?>
<VTKFile type="PolyData" version="0.1" byte_order="LittleEndian" compressor="vtkZLibDataCompressor">
  <PolyData>
    <Piece NumberOfPoints="122" NumberOfVerts="0" NumberOfLines="0" NumberOfStrips="0" NumberOfPolys="240">
      <PointData Normals="Normals">
        <DataArray type="Float32" Name="Normals" NumberOfComponents="3" format="ascii" RangeMin="0.99999997726" RangeMax="1.0000000356">
          0 0 1 0 0 -1
          0.2817325592 0 0.95949298143 0.54064083099 0 0.84125351906
          0.75574958324 0 0.65486073494 0.90963202715 0 0.41541498899
          0.98982143402 0 0.14231479168 0.98982143402 0 -0.14231488109
          0.90963196754 0 -0.4154150784 0.75574952364 0 -0.65486079454
          0.54064077139 0 -0.84125357866 0.2817324698 0 -0.95949298143
          0.24398756027 0.1408662796 0.95949298143 0.46820870042 0.2703204155 0.84125351906
          0.6544983387 0.37787479162 0.65486073494 0.78776443005 0.45481601357 0.41541498899
          0.85721051693 0.49491074681 0.14231479168 0.85721051693 0.49491071701 -0.14231488109
          0.78776437044 0.45481598377 -0.4154150784 0.65449827909 0.37787476182 -0.65486079454
          0.46820864081 0.27032038569 -0.84125357866 0.24398748577 0.1408662498 -0.95949298143
          0.1408662796 0.24398756027 0.95949298143 0.2703204155 0.46820870042 0.84125351906
          0.37787476182 0.6544983387 0.65486073494 0.45481598377 0.78776443005 0.41541498899
          0.49491068721 0.85721051693 0.14231479168 0.49491068721 0.85721051693 -0.14231488109
          0.45481595397 0.78776443005 -0.4154150784 0.37787476182 0.65449827909 -0.65486079454
          0.27032035589 0.46820864081 -0.84125357866 0.1408662349 0.24398748577 -0.95949298143
          -1.2314922415e-08 0.2817325592 0.95949298143 -2.3632162893e-08 0.54064083099 0.84125351906
          -3.303486551e-08 0.75574958324 0.65486073494 -3.9761278714e-08 0.90963202715 0.41541498899
          -4.3266471295e-08 0.98982143402 0.14231479168 -4.3266471295e-08 0.98982143402 -0.14231488109
          -3.9761278714e-08 0.90963196754 -0.4154150784 -3.3034861957e-08 0.75574952364 -0.65486079454
          -2.3632159341e-08 0.54064077139 -0.84125357866 -1.2314917974e-08 0.2817324698 -0.95949298143
          -0.1408662945 0.24398754537 0.95949298143 -0.2703204453 0.46820867062 0.84125351906
          -0.37787482142 0.6544983387 0.65486073494 -0.45481604338 0.78776443005 0.41541498899
          -0.49491077662 0.85721051693 0.14231479168 -0.49491077662 0.85721045732 -0.14231488109
          -0.45481604338 0.78776437044 -0.4154150784 -0.37787479162 0.65449827909 -0.65486079454
          -0.2703204155 0.46820861101 -0.84125357866 -0.1408662498 0.24398747087 -0.95949298143
          -0.24398757517 0.1408662647 0.95949298143 -0.46820870042 0.27032038569 0.84125351906
          -0.6544983983 0.37787476182 0.65486073494 -0.78776448965 0.45481595397 0.41541498899
          -0.85721057653 0.49491065741 0.14231479168 -0.85721051693 0.49491065741 -0.14231488109
          -0.78776443005 0.45481592417 -0.4154150784 -0.6544983387 0.37787473202 -0.65486079454
          -0.46820864081 0.27032035589 -0.84125357866 -0.24398750067 0.14086622 -0.95949298143
          -0.2817325592 -2.462984483e-08 0.95949298143 -0.54064083099 -4.7264325787e-08 0.84125351906
          -0.75574958324 -6.606973102e-08 0.65486073494 -0.90963202715 -7.9522557428e-08 0.41541498899
          -0.98982143402 -8.6532942589e-08 0.14231479168 -0.98982143402 -8.6532942589e-08 -0.14231488109
          -0.90963196754 -7.9522557428e-08 -0.4154150784 -0.75574952364 -6.6069723914e-08 -0.65486079454
          -0.54064077139 -4.7264318681e-08 -0.84125357866 -0.2817324698 -2.4629835949e-08 -0.95949298143
          -0.24398754537 -0.1408663094 0.95949298143 -0.46820867062 -0.2703204751 0.84125351906
          -0.65449827909 -0.37787485123 0.65486073494 -0.78776437044 -0.45481607318 0.41541498899
          -0.85721045732 -0.49491080642 0.14231479168 -0.85721045732 -0.49491080642 -0.14231488109
          -0.78776437044 -0.45481607318 -0.4154150784 -0.65449827909 -0.37787482142 -0.65486079454
          -0.46820861101 -0.2703204155 -0.84125357866 -0.24398747087 -0.1408662647 -0.95949298143
          -0.1408662498 -0.24398757517 0.95949298143 -0.27032035589 -0.46820873022 0.84125351906
          -0.37787473202 -0.6544983983 0.65486073494 -0.45481592417 -0.78776448965 0.41541498899
          -0.4949106276 -0.85721057653 0.14231479168 -0.4949106276 -0.85721057653 -0.14231488109
          -0.45481589437 -0.78776443005 -0.4154150784 -0.37787470222 -0.6544983387 -0.65486079454
          -0.27032032609 -0.46820867062 -0.84125357866 -0.1408662051 -0.24398750067 -0.95949298143
          3.6944765469e-08 -0.2817325592 0.95949298143 7.0896483351e-08 -0.54064083099 0.84125351906
          9.9104596529e-08 -0.75574958324 0.65486073494 1.1928383969e-07 -0.90963202715 0.41541498899
          1.2979941744e-07 -0.98982143402 0.14231479168 1.2979941744e-07 -0.98982143402 -0.14231488109
          1.1928383969e-07 -0.90963196754 -0.4154150784 9.9104589424e-08 -0.75574952364 -0.65486079454
          7.0896476245e-08 -0.54064077139 -0.84125357866 3.6944754811e-08 -0.2817324698 -0.95949298143
          0.14086632431 -0.24398753047 0.95949298143 0.2703204751 -0.46820864081 0.84125351906
          0.37787488103 -0.65449827909 0.65486073494 0.45481613278 -0.78776437044 0.41541498899
          0.49491083622 -0.85721045732 0.14231479168 0.49491083622 -0.85721045732 -0.14231488109
          0.45481610298 -0.78776431084 -0.4154150784 0.37787485123 -0.65449821949 -0.65486079454
          0.2703204453 -0.46820858121 -0.84125357866 0.1408662796 -0.24398747087 -0.95949298143
          0.24398757517 -0.1408662498 0.95949298143 0.46820873022 -0.27032032609 0.84125351906
          0.6544983983 -0.37787470222 0.65486073494 0.78776448965 -0.45481586456 0.41541498899
          0.85721057653 -0.4949105978 0.14231479168 0.85721057653 -0.494910568 -0.14231488109
          0.78776448965 -0.45481586456 -0.4154150784 0.6544983387 -0.37787467241 -0.65486079454
          0.46820867062 -0.27032029629 -0.84125357866 0.24398750067 -0.1408662051 -0.95949298143
        </DataArray>
      </PointData>
      <CellData>
      </CellData>
      <Points>
        <DataArray type="Float32" Name="Points" NumberOfComponents="3" format="ascii" RangeMin="0.99999997726" RangeMax="1.0000000356">
          0 0 1 0 0 -1
          0.2817325592 0 0.95949298143 0.54064083099 0 0.84125351906
          0.75574958324 0 0.65486073494 0.90963202715 0 0.41541498899
          0.98982143402 0 0.14231479168 0.98982143402 0 -0.14231488109
          0.90963196754 0 -0.4154150784 0.75574952364 0 -0.65486079454
          0.54064077139 0 -0.84125357866 0.2817324698 0 -0.95949298143
          0.24398756027 0.1408662796 0.95949298143 0.46820870042 0.2703204155 0.84125351906
          0.6544983387 0.37787479162 0.65486073494 0.78776443005 0.45481601357 0.41541498899
          0.85721051693 0.49491074681 0.14231479168 0.85721051693 0.49491071701 -0.14231488109
          0.78776437044 0.45481598377 -0.4154150784 0.65449827909 0.37787476182 -0.65486079454
          0.46820864081 0.27032038569 -0.84125357866 0.24398748577 0.1408662498 -0.95949298143
          0.1408662796 0.24398756027 0.95949298143 0.2703204155 0.46820870042 0.84125351906
          0.37787476182 0.6544983387 0.65486073494 0.45481598377 0.78776443005 0.41541498899
          0.49491068721 0.85721051693 0.14231479168 0.49491068721 0.85721051693 -0.14231488109
          0.45481595397 0.78776443005 -0.4154150784 0.37787476182 0.65449827909 -0.65486079454
          0.27032035589 0.46820864081 -0.84125357866 0.1408662349 0.24398748577 -0.95949298143
          -1.2314922415e-08 0.2817325592 0.95949298143 -2.3632162893e-08 0.54064083099 0.84125351906
          -3.303486551e-08 0.75574958324 0.65486073494 -3.9761278714e-08 0.90963202715 0.41541498899
          -4.3266471295e-08 0.98982143402 0.14231479168 -4.3266471295e-08 0.98982143402 -0.14231488109
          -3.9761278714e-08 0.90963196754 -0.4154150784 -3.3034861957e-08 0.75574952364 -0.65486079454
          -2.3632159341e-08 0.54064077139 -0.84125357866 -1.2314917974e-08 0.2817324698 -0.95949298143
          -0.1408662945 0.24398754537 0.95949298143 -0.2703204453 0.46820867062 0.84125351906
          -0.37787482142 0.6544983387 0.65486073494 -0.45481604338 0.78776443005 0.41541498899
          -0.49491077662 0.85721051693 0.14231479168 -0.49491077662 0.85721045732 -0.14231488109
          -0.45481604338 0.78776437044 -0.4154150784 -0.37787479162 0.65449827909 -0.65486079454
          -0.2703204155 0.46820861101 -0.84125357866 -0.1408662498 0.24398747087 -0.95949298143
          -0.24398757517 0.1408662647 0.95949298143 -0.46820870042 0.27032038569 0.84125351906
          -0.6544983983 0.37787476182 0.65486073494 -0.78776448965 0.45481595397 0.41541498899
          -0.85721057653 0.49491065741 0.14231479168 -0.85721051693 0.49491065741 -0.14231488109
          -0.78776443005 0.45481592417 -0.4154150784 -0.6544983387 0.37787473202 -0.65486079454
          -0.46820864081 0.27032035589 -0.84125357866 -0.24398750067 0.14086622 -0.95949298143
          -0.2817325592 -2.462984483e-08 0.95949298143 -0.54064083099 -4.7264325787e-08 0.84125351906
          -0.75574958324 -6.606973102e-08 0.65486073494 -0.90963202715 -7.9522557428e-08 0.41541498899
          -0.98982143402 -8.6532942589e-08 0.14231479168 -0.98982143402 -8.6532942589e-08 -0.14231488109
          -0.90963196754 -7.9522557428e-08 -0.4154150784 -0.75574952364 -6.6069723914e-08 -0.65486079454
          -0.54064077139 -4.7264318681e-08 -0.84125357866 -0.2817324698 -2.4629835949e-08 -0.95949298143
          -0.24398754537 -0.1408663094 0.95949298143 -0.46820867062 -0.2703204751 0.84125351906
          -0.65449827909 -0.37787485123 0.65486073494 -0.78776437044 -0.45481607318 0.41541498899
          -0.85721045732 -0.49491080642 0.14231479168 -0.85721045732 -0.49491080642 -0.14231488109
          -0.78776437044 -0.45481607318 -0.4154150784 -0.65449827909 -0.37787482142 -0.65486079454
          -0.46820861101 -0.2703204155 -0.84125357866 -0.24398747087 -0.1408662647 -0.95949298143
          -0.1408662498 -0.24398757517 0.95949298143 -0.27032035589 -0.46820873022 0.84125351906
          -0.37787473202 -0.6544983983 0.65486073494 -0.45481592417 -0.78776448965 0.41541498899
          -0.4949106276 -0.85721057653 0.14231479168 -0.4949106276 -0.85721057653 -0.14231488109
          -0.45481589437 -0.78776443005 -0.4154150784 -0.37787470222 -0.6544983387 -0.65486079454
          -0.27032032609 -0.46820867062 -0.84125357866 -0.1408662051 -0.24398750067 -0.95949298143
          3.6944765469e-08 -0.2817325592 0.95949298143 7.0896483351e-08 -0.54064083099 0.84125351906
          9.9104596529e-08 -0.75574958324 0.65486073494 1.1928383969e-07 -0.90963202715 0.41541498899
          1.2979941744e-07 -0.98982143402 0.14231479168 1.2979941744e-07 -0.98982143402 -0.14231488109
          1.1928383969e-07 -0.90963196754 -0.4154150784 9.9104589424e-08 -0.75574952364 -0.65486079454
          7.0896476245e-08 -0.54064077139 -0.84125357866 3.6944754811e-08 -0.2817324698 -0.95949298143
          0.14086632431 -0.24398753047 0.95949298143 0.2703204751 -0.46820864081 0.84125351906
          0.37787488103 -0.65449827909 0.65486073494 0.45481613278 -0.78776437044 0.41541498899
          0.49491083622 -0.85721045732 0.14231479168 0.49491083622 -0.85721045732 -0.14231488109
          0.45481610298 -0.78776431084 -0.4154150784 0.37787485123 -0.65449821949 -0.65486079454
          0.2703204453 -0.46820858121 -0.84125357866 0.1408662796 -0.24398747087 -0.95949298143
          0.24398757517 -0.1408662498 0.95949298143 0.46820873022 -0.27032032609 0.84125351906
          0.6544983983 -0.37787470222 0.65486073494 0.78776448965 -0.45481586456 0.41541498899
          0.85721057653 -0.4949105978 0.14231479168 0.85721057653 -0.494910568 -0.14231488109
          0.78776448965 -0.45481586456 -0.4154150784 0.6544983387 -0.37787467241 -0.65486079454
          0.46820867062 -0.27032029629 -0.84125357866 0.24398750067 -0.1408662051 -0.95949298143
        </DataArray>
      </Points>
      <Verts>
        <DataArray type="Int32" Name="connectivity" format="ascii" RangeMin="1e+299" RangeMax="-1e+299">
        </DataArray>
        <DataArray type="Int32" Name="offsets" format="ascii" RangeMin="1e+299" RangeMax="-1e+299">
        </DataArray>
      </Verts>
      <Lines>
        <DataArray type="Int32" Name="connectivity" format="ascii" RangeMin="1e+299" RangeMax="-1e+299">
        </DataArray>
        <DataArray type="Int32" Name="offsets" format="ascii" RangeMin="1e+299" RangeMax="-1e+299">
        </DataArray>
      </Lines>
      <Strips>
        <DataArray type="Int32" Name="connectivity" format="ascii" RangeMin="1e+299" RangeMax="-1e+299">
        </DataArray>
        <DataArray type="Int32" Name="offsets" format="ascii" RangeMin="1e+299" RangeMax="-1e+299">
        </DataArray>
      </Strips>
      <Polys>
        <DataArray type="Int32" Name="connectivity" format="ascii" RangeMin="0" RangeMax="121">
          2 12 0 12 22 0
          22 32 0 32 42 0
          42 52 0 52 62 0
          62 72 0 72 82 0
          82 92 0 92 102 0
          102 112 0 112 2 0
          11 1 21 21 1 31
          31 1 41 41 1 51
          51 1 61 61 1 71
          71 1 81 81 1 91
          91 1 101 101 1 111
          111 1 121 121 1 11
          2 3 13 2 13 12
          3 4 14 3 14 13
          4 5 15 4 15 14
          5 6 16 5 16 15
          6 7 17 6 17 16
          7 8 18 7 18 17
          8 9 19 8 19 18
          9 10 20 9 20 19
          10 11 21 10 21 20
          12 13 23 12 23 22
          13 14 24 13 24 23
          14 15 25 14 25 24
          15 16 26 15 26 25
          16 17 27 16 27 26
          17 18 28 17 28 27
          18 19 29 18 29 28
          19 20 30 19 30 29
          20 21 31 20 31 30
          22 23 33 22 33 32
          23 24 34 23 34 33
          24 25 35 24 35 34
          25 26 36 25 36 35
          26 27 37 26 37 36
          27 28 38 27 38 37
          28 29 39 28 39 38
          29 30 40 29 40 39
          30 31 41 30 41 40
          32 33 43 32 43 42
          33 34 44 33 44 43
          34 35 45 34 45 44
          35 36 46 35 46 45
          36 37 47 36 47 46
          37 38 48 37 48 47
          38 39 49 38 49 48
          39 40 50 39 50 49
          40 41 51 40 51 50
          42 43 53 42 53 52
          43 44 54 43 54 53
          44 45 55 44 55 54
          45 46 56 45 56 55
          46 47 57 46 57 56
          47 48 58 47 58 57
          48 49 59 48 59 58
          49 50 60 49 60 59
          50 51 61 50 61 60
          52 53 63 52 63 62
          53 54 64 53 64 63
          54 55 65 54 65 64
          55 56 66 55 66 65
          56 57 67 56 67 66
          57 58 68 57 68 67
          58 59 69 58 69 68
          59 60 70 59 70 69
          60 61 71 60 71 70
          62 63 73 62 73 72
          63 64 74 63 74 73
          64 65 75 64 75 74
          65 66 76 65 76 75
          66 67 77 66 77 76
          67 68 78 67 78 77
          68 69 79 68 79 78
          69 70 80 69 80 79
          70 71 81 70 81 80
          72 73 83 72 83 82
          73 74 84 73 84 83
          74 75 85 74 85 84
          75 76 86 75 86 85
          76 77 87 76 87 86
          77 78 88 77 88 87
          78 79 89 78 89 88
          79 80 90 79 90 89
          80 81 91 80 91 90
          82 83 93 82 93 92
          83 84 94 83 94 93
          84 85 95 84 95 94
          85 86 96 85 96 95
          86 87 97 86 97 96
          87 88 98 87 98 97
          88 89 99 88 99 98
          89 90 100 89 100 99
          90 91 101 90 101 100
          92 93 103 92 103 102
          93 94 104 93 104 103
          94 95 105 94 105 104
          95 96 106 95 106 105
          96 97 107 96 107 106
          97 98 108 97 108 107
          98 99 109 98 109 108
          99 100 110 99 110 109
          100 101 111 100 111 110
          102 103 113 102 113 112
          103 104 114 103 114 113
          104 105 115 104 115 114
          105 106 116 105 116 115
          106 107 117 106 117 116
          107 108 118 107 118 117
          108 109 119 108 119 118
          109 110 120 109 120 119
          110 111 121 110 121 120
          112 113 3 112 3 2
          113 114 4 113 4 3
          114 115 5 114 5 4
          115 116 6 115 6 5
          116 117 7 116 7 6
          117 118 8 117 8 7
          118 119 9 118 9 8
          119 120 10 119 10 9
          120 121 11 120 11 10
        </DataArray>
        <DataArray type="Int32" Name="offsets" format="ascii" RangeMin="3" RangeMax="720">
          3 6 9 12 15 18
          21 24 27 30 33 36
          39 42 45 48 51 54
          57 60 63 66 69 72
          75 78 81 84 87 90
          93 96 99 102 105 108
          111 114 117 120 123 126
          129 132 135 138 141 144
          147 150 153 156 159 162
          165 168 171 174 177 180
          183 186 189 192 195 198
          201 204 207 210 213 216
          219 222 225 228 231 234
          237 240 243 246 249 252
          255 258 261 264 267 270
          273 276 279 282 285 288
          291 294 297 300 303 306
          309 312 315 318 321 324
          327 330 333 336 339 342
          345 348 351 354 357 360
          363 366 369 372 375 378
          381 384 387 390 393 396
          399 402 405 408 411 414
          417 420 423 426 429 432
          435 438 441 444 447 450
          453 456 459 462 465 468
          471 474 477 480 483 486
          489 492 495 498 501 504
          507 510 513 516 519 522
          525 528 531 534 537 540
          543 546 549 552 555 558
          561 564 567 570 573 576
          579 582 585 588 591 594
          597 600 603 606 609 612
          615 618 621 624 627 630
          633 636 639 642 645 648
          651 654 657 660 663 666
          669 672 675 678 681 684
          687 690 693 696 699 702
          705 708 711 714 717 720
        </DataArray>
      </Polys>
    </Piece>
  </PolyData>
</VTKFile>
