<?xml version="1.0"?>
<VTKFile type="PolyData" version="0.1" byte_order="LittleEndian">
  <PolyData>
    <Piece NumberOfPoints="26" NumberOfVerts="0" NumberOfLines="0" NumberOfStrips="0" NumberOfPolys="48">
      <PointData Normals="Normals" TCoords="TCoords">
        <DataArray type="Float32" Name="Normals" NumberOfComponents="3" format="ascii" RangeMin="0" RangeMax="1">
          -1 0 0 -1 0 0
          -1 0 0 1 0 0
          -1 0 0 1 0 0
          1 0 0 1 0 0
          -1 0 0 -1 0 0
          -1 0 0 0 0 0
          0 0 0 -1 0 0
          -1 0 0 0 0 0
          0 0 0 0 0 0
          0 0 0 1 0 0
          1 0 0 0 0 0
          0 0 0 1 0 0
          1 0 0 1 0 0
        </DataArray>
        <DataArray type="Float32" Name="TCoords" NumberOfComponents="2" format="ascii" RangeMin="0.25" RangeMax="1.0606601718">
          0.25 0.25 0.75 0.75 0.25 0.75
          -0.25 0.25 0.75 0.25 -0.75 0.75
          -0.75 0.25 -0.25 0.75 0.25 0.5
          0.5 0.5 0.5 0.75 0 0.25
          0 0.5 0.5 0.25 0.75 0.5
          0.25 0.25 0 0.5 0 0.75
          0 0.25 -0.5 0.25 -0.75 0.5
          0.25 0.75 0 0.75 -0.5 0.75
          -0.25 0.5 -0.5 0.5
        </DataArray>
      </PointData>
      <CellData>
      </CellData>
      <Points>
        <DataArray type="Float32" Name="Points" NumberOfComponents="3" format="ascii" RangeMin="0.11049206522" RangeMax="0.16205312313">
          -0.10043413937 -0.078522965312 -0.078934162855 -0.087149649858 0.087165884674 0.069580540061
          -0.07900492847 0.079013764858 -0.10049890727 0.07848905772 -0.078489780426 -0.078217186034
          -0.069857276976 -0.087426804006 0.087437070906 0.087437696755 0.069867327809 0.087422974408
          0.093567825854 -0.093543559313 0.093572854996 0.078532963991 0.10041335225 -0.078957237303
          -0.092797622085 0.00019101674843 -0.092793397605 -0.11205902696 0.00061859353445 -0.0024795751087
          -0.090202413499 0.090252667665 -0.024550916627 -0.023709174246 -0.089273504913 -0.089378803968
          -0.0018957835855 0.0019375571283 -0.11141323298 -0.09202054888 -0.089894898236 0.00063186627813
          -0.089347682893 -0.00012162151688 0.089286953211 0.00063684128691 -0.11051923782 0.0025630861055
          0.003157191677 -0.0031035465654 0.11117251217 0.00021318715881 0.089396104217 0.089225359261
          0.024007357657 -0.092982694507 0.093005374074 0.092325106263 -0.092248253524 0.023482020944
          0.09300135076 -0.02392844297 0.092991389334 -0.00056567892898 0.11201770604 -0.0025856103748
          -0.00015006429749 0.092749029398 -0.0928125754 0.089935585856 0.091959133744 0.00054407672724
          0.089239895344 0.023672163486 -0.089372113347 0.11046098173 -0.00062234734651 0.0025457171723
        </DataArray>
      </Points>
      <Verts>
        <DataArray type="Int32" Name="connectivity" format="ascii" RangeMin="1e+299" RangeMax="-1e+299">
        </DataArray>
        <DataArray type="Int32" Name="offsets" format="ascii" RangeMin="1e+299" RangeMax="-1e+299">
        </DataArray>
      </Verts>
      <Lines>
        <DataArray type="Int32" Name="connectivity" format="ascii" RangeMin="1e+299" RangeMax="-1e+299">
        </DataArray>
        <DataArray type="Int32" Name="offsets" format="ascii" RangeMin="1e+299" RangeMax="-1e+299">
        </DataArray>
      </Lines>
      <Strips>
        <DataArray type="Int32" Name="connectivity" format="ascii" RangeMin="1e+299" RangeMax="-1e+299">
        </DataArray>
        <DataArray type="Int32" Name="offsets" format="ascii" RangeMin="1e+299" RangeMax="-1e+299">
        </DataArray>
      </Strips>
      <Polys>
        <DataArray type="Int32" Name="connectivity" format="ascii" RangeMin="0" RangeMax="25">
          0 9 8 9 1 10
          10 2 8 9 10 8
          0 8 11 8 2 12
          12 3 11 8 12 11
          0 13 9 13 4 14
          14 1 9 13 14 9
          0 11 13 11 3 15
          15 4 13 11 15 13
          4 16 14 16 5 17
          17 1 14 16 17 14
          4 15 18 15 3 19
          19 6 18 15 19 18
          4 18 16 18 6 20
          20 5 16 18 20 16
          1 21 10 21 7 22
          22 2 10 21 22 10
          1 17 21 17 5 23
          23 7 21 17 23 21
          2 22 12 22 7 24
          24 3 12 22 24 12
          3 24 25 24 7 23
          23 5 25 24 23 25
          3 25 19 25 5 20
          20 6 19 25 20 19
        </DataArray>
        <DataArray type="Int32" Name="offsets" format="ascii" RangeMin="3" RangeMax="144">
          3 6 9 12 15 18
          21 24 27 30 33 36
          39 42 45 48 51 54
          57 60 63 66 69 72
          75 78 81 84 87 90
          93 96 99 102 105 108
          111 114 117 120 123 126
          129 132 135 138 141 144
        </DataArray>
      </Polys>
    </Piece>
  </PolyData>
</VTKFile>
